 Entering Gaussian System, Link 0=g16
 Input=Tem_Prop_Cy2_3-3.gjf
 Output=Tem_Prop_Cy2_3-3.log
 Initial command:
 /share/apps/g16/l1.exe "/backup/38929.cluster.hpc/Gau-12087.inp" -scrdir="/backup/38929.cluster.hpc/"
 Entering Link 1 = /share/apps/g16/l1.exe PID=     12103.
  
 Copyright (c) 1988,1990,1992,1993,1995,1998,2003,2009,2016,
            Gaussian, Inc.  All Rights Reserved.
  
 This is part of the Gaussian(R) 16 program.  It is based on
 the Gaussian(R) 09 system (copyright 2009, Gaussian, Inc.),
 the Gaussian(R) 03 system (copyright 2003, Gaussian, Inc.),
 the Gaussian(R) 98 system (copyright 1998, Gaussian, Inc.),
 the Gaussian(R) 94 system (copyright 1995, Gaussian, Inc.),
 the Gaussian 92(TM) system (copyright 1992, Gaussian, Inc.),
 the Gaussian 90(TM) system (copyright 1990, Gaussian, Inc.),
 the Gaussian 88(TM) system (copyright 1988, Gaussian, Inc.),
 the Gaussian 86(TM) system (copyright 1986, Carnegie Mellon
 University), and the Gaussian 82(TM) system (copyright 1983,
 Carnegie Mellon University). Gaussian is a federally registered
 trademark of Gaussian, Inc.
  
 This software contains proprietary and confidential information,
 including trade secrets, belonging to Gaussian, Inc.
  
 This software is provided under written license and may be
 used, copied, transmitted, or stored only in accord with that
 written license.
  
 The following legend is applicable only to US Government
 contracts under FAR:
  
                    RESTRICTED RIGHTS LEGEND
  
 Use, reproduction and disclosure by the US Government is
 subject to restrictions as set forth in subparagraphs (a)
 and (c) of the Commercial Computer Software - Restricted
 Rights clause in FAR 52.227-19.
  
 Gaussian, Inc.
 340 Quinnipiac St., Bldg. 40, Wallingford CT 06492
  
  
 ---------------------------------------------------------------
 Warning -- This program may not be used in any manner that
 competes with the business of Gaussian, Inc. or will provide
 assistance to any competitor of Gaussian, Inc.  The licensee
 of this program is prohibited from giving any competitor of
 Gaussian, Inc. access to this program.  By using this program,
 the user acknowledges that Gaussian, Inc. is engaged in the
 business of creating and licensing software in the field of
 computational chemistry and represents and warrants to the
 licensee that it is not a competitor of Gaussian, Inc. and that
 it will not use this program in any manner prohibited above.
 ---------------------------------------------------------------
  

 Cite this work as:
 Gaussian 16, Revision A.03,
 M. J. Frisch, G. W. Trucks, H. B. Schlegel, G. E. Scuseria, 
 M. A. Robb, J. R. Cheeseman, G. Scalmani, V. Barone, 
 G. A. Petersson, H. Nakatsuji, X. Li, M. Caricato, A. V. Marenich, 
 J. Bloino, B. G. Janesko, R. Gomperts, B. Mennucci, H. P. Hratchian, 
 J. V. Ortiz, A. F. Izmaylov, J. L. Sonnenberg, D. Williams-Young, 
 F. Ding, F. Lipparini, F. Egidi, J. Goings, B. Peng, A. Petrone, 
 T. Henderson, D. Ranasinghe, V. G. Zakrzewski, J. Gao, N. Rega, 
 G. Zheng, W. Liang, M. Hada, M. Ehara, K. Toyota, R. Fukuda, 
 J. Hasegawa, M. Ishida, T. Nakajima, Y. Honda, O. Kitao, H. Nakai, 
 T. Vreven, K. Throssell, J. A. Montgomery, Jr., J. E. Peralta, 
 F. Ogliaro, M. J. Bearpark, J. J. Heyd, E. N. Brothers, K. N. Kudin, 
 V. N. Staroverov, T. A. Keith, R. Kobayashi, J. Normand, 
 K. Raghavachari, A. P. Rendell, J. C. Burant, S. S. Iyengar, 
 J. Tomasi, M. Cossi, J. M. Millam, M. Klene, C. Adamo, R. Cammi, 
 J. W. Ochterski, R. L. Martin, K. Morokuma, O. Farkas, 
 J. B. Foresman, and D. J. Fox, Gaussian, Inc., Wallingford CT, 2016.
 
 ******************************************
 Gaussian 16:  ES64L-G16RevA.03 25-Dec-2016
                 3-May-2021 
 ******************************************
 %mem=2GB
 %nprocshared=16
 Will use up to   16 processors via shared memory.
 %chk=Tem_Prop_Cy2_3-3.chk
 -----------------------------------------------------
 # opt freq 6-311g(d,p) scrf=(solvent=water,pcm) m062x
 -----------------------------------------------------
 1/18=20,19=15,26=3,38=1/1,3;
 2/9=110,12=2,17=6,18=5,40=1/2;
 3/5=4,6=6,7=101,11=2,25=1,30=1,70=2201,71=1,72=1,74=-55/1,2,3;
 4//1;
 5/5=2,38=5,53=1/2;
 6/7=2,8=2,9=2,10=2,28=1/1;
 7//1,2,3,16;
 1/18=20,19=15,26=3/3(2);
 2/9=110/2;
 99//99;
 2/9=110/2;
 3/5=4,6=6,7=101,11=2,25=1,30=1,70=2205,71=1,72=1,74=-55/1,2,3;
 4/5=5,16=3,69=1/1;
 5/5=2,38=5,53=1/2;
 7//1,2,3,16;
 1/18=20,19=15,26=3/3(-5);
 2/9=110/2;
 6/7=2,8=2,9=2,10=2,19=2,28=1/1;
 99/9=1/99;
 -------------------
 Title Card Required
 -------------------
 Symbolic Z-matrix:
 Charge =  0 Multiplicity = 2
 O                     6.18798   0.21375  -0.90891 
 H                     5.75662  -0.62735  -0.73062 
 C                     9.69634  -1.14639  -1.4393 
 N                     10.34972   0.19406  -1.37224 
 O                     11.61658   0.20262  -1.47606 
 C                     8.18378  -0.97646  -1.61035 
 C                     7.57957   0.05375  -0.66839 
 C                     8.22579   1.39821  -0.94027 
 C                     9.74226   1.39835  -0.73011 
 C                     10.34636   2.62769  -1.41056 
 C                     10.26799  -1.87675  -2.65481 
 C                     10.10758   1.41437   0.76115 
 C                     10.04605  -1.93934  -0.17221 
 H                     7.71315  -1.95352  -1.46323 
 H                     7.96324  -0.65496  -2.63401 
 H                     7.787     2.16322  -0.29437 
 H                     7.99725   1.6693   -1.97675 
 H                     9.84662   3.52323  -1.03543 
 H                     10.20366   2.57263  -2.49181 
 H                     11.41299   2.70355  -1.20018 
 H                     10.12762  -1.28115  -3.55912 
 H                     9.74498  -2.82773  -2.7764 
 H                     11.33127  -2.07158  -2.5182 
 H                     7.73926  -0.24311   0.37548 
 H                     11.1828   1.2658    0.87604 
 H                     9.83604   2.38284   1.18716 
 H                     9.58583   0.64067   1.32585 
 H                     9.61585  -2.94104  -0.24262 
 H                     11.13136  -2.03603  -0.10354 
 H                     9.66454  -1.4691    0.73489 
 O                     18.72976   2.56937  -3.30506 
 O                     18.77691   0.62561  -4.40948 
 N                     16.02269   0.26037  -4.12904 
 C                     16.63904   1.49881  -3.67477 
 C                     16.19196   1.64028  -2.19904 
 C                     15.69416   0.23016  -1.81024 
 C                     16.13098  -0.65413  -2.97988 
 C                     18.15472   1.47606  -3.82674 
 H                     16.30098   2.34963  -4.27479 
 H                     15.39792   2.38172  -2.1175 
 H                     17.02566   1.95703  -1.57565 
 H                     16.12736  -0.10663  -0.86884 
 H                     14.60648   0.22282  -1.7211 
 H                     17.16243  -0.98999  -2.81863 
 H                     15.48838  -1.52428  -3.12245 
 H                     16.53581  -0.10428  -4.92653 
 H                     19.68391   2.51717  -3.4595 
 
 Add virtual bond connecting atoms H43        and O5         Dist= 5.67D+00.

 GradGradGradGradGradGradGradGradGradGradGradGradGradGradGradGradGradGrad
 Berny optimization.
 Initialization pass.
                           ----------------------------
                           !    Initial Parameters    !
                           ! (Angstroms and Degrees)  !
 --------------------------                            --------------------------
 ! Name  Definition              Value          Derivative Info.                !
 --------------------------------------------------------------------------------
 ! R1    R(1,2)                  0.9619         estimate D2E/DX2                !
 ! R2    R(1,7)                  1.4213         estimate D2E/DX2                !
 ! R3    R(3,4)                  1.4927         estimate D2E/DX2                !
 ! R4    R(3,6)                  1.5317         estimate D2E/DX2                !
 ! R5    R(3,11)                 1.5289         estimate D2E/DX2                !
 ! R6    R(3,13)                 1.5351         estimate D2E/DX2                !
 ! R7    R(4,5)                  1.2711         estimate D2E/DX2                !
 ! R8    R(4,9)                  1.4939         estimate D2E/DX2                !
 ! R9    R(5,43)                 3.0            estimate D2E/DX2                !
 ! R10   R(6,7)                  1.5211         estimate D2E/DX2                !
 ! R11   R(6,14)                 1.0944         estimate D2E/DX2                !
 ! R12   R(6,15)                 1.0954         estimate D2E/DX2                !
 ! R13   R(7,8)                  1.5163         estimate D2E/DX2                !
 ! R14   R(7,24)                 1.0969         estimate D2E/DX2                !
 ! R15   R(8,9)                  1.531          estimate D2E/DX2                !
 ! R16   R(8,16)                 1.0931         estimate D2E/DX2                !
 ! R17   R(8,17)                 1.0955         estimate D2E/DX2                !
 ! R18   R(9,10)                 1.5295         estimate D2E/DX2                !
 ! R19   R(9,12)                 1.5354         estimate D2E/DX2                !
 ! R20   R(10,18)                1.092          estimate D2E/DX2                !
 ! R21   R(10,19)                1.092          estimate D2E/DX2                !
 ! R22   R(10,20)                1.0898         estimate D2E/DX2                !
 ! R23   R(11,21)                1.0919         estimate D2E/DX2                !
 ! R24   R(11,22)                1.0921         estimate D2E/DX2                !
 ! R25   R(11,23)                1.0896         estimate D2E/DX2                !
 ! R26   R(12,25)                1.0915         estimate D2E/DX2                !
 ! R27   R(12,26)                1.0923         estimate D2E/DX2                !
 ! R28   R(12,27)                1.0907         estimate D2E/DX2                !
 ! R29   R(13,28)                1.0924         estimate D2E/DX2                !
 ! R30   R(13,29)                1.0918         estimate D2E/DX2                !
 ! R31   R(13,30)                1.0906         estimate D2E/DX2                !
 ! R32   R(31,38)                1.3409         estimate D2E/DX2                !
 ! R33   R(31,47)                0.968          estimate D2E/DX2                !
 ! R34   R(32,38)                1.2041         estimate D2E/DX2                !
 ! R35   R(33,34)                1.456          estimate D2E/DX2                !
 ! R36   R(33,37)                1.4726         estimate D2E/DX2                !
 ! R37   R(33,46)                1.016          estimate D2E/DX2                !
 ! R38   R(34,35)                1.5484         estimate D2E/DX2                !
 ! R39   R(34,38)                1.5235         estimate D2E/DX2                !
 ! R40   R(34,39)                1.0946         estimate D2E/DX2                !
 ! R41   R(35,36)                1.5451         estimate D2E/DX2                !
 ! R42   R(35,40)                1.0894         estimate D2E/DX2                !
 ! R43   R(35,41)                1.0881         estimate D2E/DX2                !
 ! R44   R(36,37)                1.53           estimate D2E/DX2                !
 ! R45   R(36,42)                1.0897         estimate D2E/DX2                !
 ! R46   R(36,43)                1.0914         estimate D2E/DX2                !
 ! R47   R(37,44)                1.0967         estimate D2E/DX2                !
 ! R48   R(37,45)                1.0911         estimate D2E/DX2                !
 ! A1    A(2,1,7)              108.0156         estimate D2E/DX2                !
 ! A2    A(4,3,6)              109.7337         estimate D2E/DX2                !
 ! A3    A(4,3,11)             107.5191         estimate D2E/DX2                !
 ! A4    A(4,3,13)             109.0897         estimate D2E/DX2                !
 ! A5    A(6,3,11)             109.4778         estimate D2E/DX2                !
 ! A6    A(6,3,13)             111.9906         estimate D2E/DX2                !
 ! A7    A(11,3,13)            108.9213         estimate D2E/DX2                !
 ! A8    A(3,4,5)              116.0159         estimate D2E/DX2                !
 ! A9    A(3,4,9)              124.4188         estimate D2E/DX2                !
 ! A10   A(5,4,9)              115.7822         estimate D2E/DX2                !
 ! A11   A(3,6,7)              113.4692         estimate D2E/DX2                !
 ! A12   A(3,6,14)             108.0953         estimate D2E/DX2                !
 ! A13   A(3,6,15)             109.6182         estimate D2E/DX2                !
 ! A14   A(7,6,14)             110.5234         estimate D2E/DX2                !
 ! A15   A(7,6,15)             107.4553         estimate D2E/DX2                !
 ! A16   A(14,6,15)            107.5217         estimate D2E/DX2                !
 ! A17   A(1,7,6)              111.1234         estimate D2E/DX2                !
 ! A18   A(1,7,8)              106.6861         estimate D2E/DX2                !
 ! A19   A(1,7,24)             109.5144         estimate D2E/DX2                !
 ! A20   A(6,7,8)              108.6756         estimate D2E/DX2                !
 ! A21   A(6,7,24)             110.3766         estimate D2E/DX2                !
 ! A22   A(8,7,24)             110.3986         estimate D2E/DX2                !
 ! A23   A(7,8,9)              113.4294         estimate D2E/DX2                !
 ! A24   A(7,8,16)             110.091          estimate D2E/DX2                !
 ! A25   A(7,8,17)             107.4674         estimate D2E/DX2                !
 ! A26   A(9,8,16)             108.4472         estimate D2E/DX2                !
 ! A27   A(9,8,17)             109.6641         estimate D2E/DX2                !
 ! A28   A(16,8,17)            107.5859         estimate D2E/DX2                !
 ! A29   A(4,9,8)              110.1032         estimate D2E/DX2                !
 ! A30   A(4,9,10)             107.2248         estimate D2E/DX2                !
 ! A31   A(4,9,12)             109.216          estimate D2E/DX2                !
 ! A32   A(8,9,10)             109.2833         estimate D2E/DX2                !
 ! A33   A(8,9,12)             111.6538         estimate D2E/DX2                !
 ! A34   A(10,9,12)            109.2526         estimate D2E/DX2                !
 ! A35   A(9,10,18)            109.0008         estimate D2E/DX2                !
 ! A36   A(9,10,19)            110.3878         estimate D2E/DX2                !
 ! A37   A(9,10,20)            110.8936         estimate D2E/DX2                !
 ! A38   A(18,10,19)           108.7654         estimate D2E/DX2                !
 ! A39   A(18,10,20)           108.9355         estimate D2E/DX2                !
 ! A40   A(19,10,20)           108.8165         estimate D2E/DX2                !
 ! A41   A(3,11,21)            110.4745         estimate D2E/DX2                !
 ! A42   A(3,11,22)            108.9911         estimate D2E/DX2                !
 ! A43   A(3,11,23)            110.5243         estimate D2E/DX2                !
 ! A44   A(21,11,22)           108.7362         estimate D2E/DX2                !
 ! A45   A(21,11,23)           109.0765         estimate D2E/DX2                !
 ! A46   A(22,11,23)           109.0016         estimate D2E/DX2                !
 ! A47   A(9,12,25)            109.5844         estimate D2E/DX2                !
 ! A48   A(9,12,26)            109.2015         estimate D2E/DX2                !
 ! A49   A(9,12,27)            112.4339         estimate D2E/DX2                !
 ! A50   A(25,12,26)           108.9359         estimate D2E/DX2                !
 ! A51   A(25,12,27)           108.6726         estimate D2E/DX2                !
 ! A52   A(26,12,27)           107.9435         estimate D2E/DX2                !
 ! A53   A(3,13,28)            109.3125         estimate D2E/DX2                !
 ! A54   A(3,13,29)            108.9122         estimate D2E/DX2                !
 ! A55   A(3,13,30)            112.5872         estimate D2E/DX2                !
 ! A56   A(28,13,29)           108.32           estimate D2E/DX2                !
 ! A57   A(28,13,30)           108.1318         estimate D2E/DX2                !
 ! A58   A(29,13,30)           109.4878         estimate D2E/DX2                !
 ! A59   A(38,31,47)           108.4616         estimate D2E/DX2                !
 ! A60   A(34,33,37)           104.6907         estimate D2E/DX2                !
 ! A61   A(34,33,46)           109.6566         estimate D2E/DX2                !
 ! A62   A(37,33,46)           110.6405         estimate D2E/DX2                !
 ! A63   A(33,34,35)           104.6454         estimate D2E/DX2                !
 ! A64   A(33,34,38)           112.1681         estimate D2E/DX2                !
 ! A65   A(33,34,39)           111.061          estimate D2E/DX2                !
 ! A66   A(35,34,38)           112.5626         estimate D2E/DX2                !
 ! A67   A(35,34,39)           111.2377         estimate D2E/DX2                !
 ! A68   A(38,34,39)           105.3183         estimate D2E/DX2                !
 ! A69   A(34,35,36)           104.4452         estimate D2E/DX2                !
 ! A70   A(34,35,40)           110.1177         estimate D2E/DX2                !
 ! A71   A(34,35,41)           110.572          estimate D2E/DX2                !
 ! A72   A(36,35,40)           111.559          estimate D2E/DX2                !
 ! A73   A(36,35,41)           111.6137         estimate D2E/DX2                !
 ! A74   A(40,35,41)           108.508          estimate D2E/DX2                !
 ! A75   A(35,36,37)           104.0714         estimate D2E/DX2                !
 ! A76   A(35,36,42)           111.8018         estimate D2E/DX2                !
 ! A77   A(35,36,43)           110.3521         estimate D2E/DX2                !
 ! A78   A(37,36,42)           111.6121         estimate D2E/DX2                !
 ! A79   A(37,36,43)           110.0658         estimate D2E/DX2                !
 ! A80   A(42,36,43)           108.8788         estimate D2E/DX2                !
 ! A81   A(33,37,36)           102.5119         estimate D2E/DX2                !
 ! A82   A(33,37,44)           111.9681         estimate D2E/DX2                !
 ! A83   A(33,37,45)           110.486          estimate D2E/DX2                !
 ! A84   A(36,37,44)           109.459          estimate D2E/DX2                !
 ! A85   A(36,37,45)           113.1219         estimate D2E/DX2                !
 ! A86   A(44,37,45)           109.2025         estimate D2E/DX2                !
 ! A87   A(31,38,32)           122.8561         estimate D2E/DX2                !
 ! A88   A(31,38,34)           112.0649         estimate D2E/DX2                !
 ! A89   A(32,38,34)           124.9523         estimate D2E/DX2                !
 ! A90   L(4,5,43,20,-1)       180.0            estimate D2E/DX2                !
 ! A91   L(5,43,36,40,-1)      180.0            estimate D2E/DX2                !
 ! A92   L(4,5,43,20,-2)       180.0            estimate D2E/DX2                !
 ! A93   L(5,43,36,40,-2)      180.0            estimate D2E/DX2                !
 ! D1    D(2,1,7,6)             62.4162         estimate D2E/DX2                !
 ! D2    D(2,1,7,8)           -179.2785         estimate D2E/DX2                !
 ! D3    D(2,1,7,24)           -59.788          estimate D2E/DX2                !
 ! D4    D(6,3,4,5)           -167.6249         estimate D2E/DX2                !
 ! D5    D(6,3,4,9)             35.282          estimate D2E/DX2                !
 ! D6    D(11,3,4,5)           -48.6314         estimate D2E/DX2                !
 ! D7    D(11,3,4,9)           154.2755         estimate D2E/DX2                !
 ! D8    D(13,3,4,5)            69.3428         estimate D2E/DX2                !
 ! D9    D(13,3,4,9)           -87.7503         estimate D2E/DX2                !
 ! D10   D(4,3,6,7)            -46.2902         estimate D2E/DX2                !
 ! D11   D(4,3,6,14)          -169.2442         estimate D2E/DX2                !
 ! D12   D(4,3,6,15)            73.8373         estimate D2E/DX2                !
 ! D13   D(11,3,6,7)          -164.071          estimate D2E/DX2                !
 ! D14   D(11,3,6,14)           72.975          estimate D2E/DX2                !
 ! D15   D(11,3,6,15)          -43.9435         estimate D2E/DX2                !
 ! D16   D(13,3,6,7)            75.0138         estimate D2E/DX2                !
 ! D17   D(13,3,6,14)          -47.9403         estimate D2E/DX2                !
 ! D18   D(13,3,6,15)         -164.8588         estimate D2E/DX2                !
 ! D19   D(4,3,11,21)          -55.8395         estimate D2E/DX2                !
 ! D20   D(4,3,11,22)         -175.2529         estimate D2E/DX2                !
 ! D21   D(4,3,11,23)           64.9773         estimate D2E/DX2                !
 ! D22   D(6,3,11,21)           63.3179         estimate D2E/DX2                !
 ! D23   D(6,3,11,22)          -56.0955         estimate D2E/DX2                !
 ! D24   D(6,3,11,23)         -175.8653         estimate D2E/DX2                !
 ! D25   D(13,3,11,21)        -173.9227         estimate D2E/DX2                !
 ! D26   D(13,3,11,22)          66.6638         estimate D2E/DX2                !
 ! D27   D(13,3,11,23)         -53.1059         estimate D2E/DX2                !
 ! D28   D(4,3,13,28)         -176.8741         estimate D2E/DX2                !
 ! D29   D(4,3,13,29)          -58.701          estimate D2E/DX2                !
 ! D30   D(4,3,13,30)           62.9313         estimate D2E/DX2                !
 ! D31   D(6,3,13,28)           61.4515         estimate D2E/DX2                !
 ! D32   D(6,3,13,29)          179.6246         estimate D2E/DX2                !
 ! D33   D(6,3,13,30)          -58.7431         estimate D2E/DX2                !
 ! D34   D(11,3,13,28)         -59.7854         estimate D2E/DX2                !
 ! D35   D(11,3,13,29)          58.3878         estimate D2E/DX2                !
 ! D36   D(11,3,13,30)        -179.9799         estimate D2E/DX2                !
 ! D37   D(3,4,36,35)          161.0064         estimate D2E/DX2                !
 ! D38   D(3,4,36,37)           46.7027         estimate D2E/DX2                !
 ! D39   D(3,4,36,42)          -75.9351         estimate D2E/DX2                !
 ! D40   D(9,4,36,35)          -39.8844         estimate D2E/DX2                !
 ! D41   D(9,4,36,37)         -154.188          estimate D2E/DX2                !
 ! D42   D(9,4,36,42)           83.1742         estimate D2E/DX2                !
 ! D43   D(3,4,9,8)            -35.0607         estimate D2E/DX2                !
 ! D44   D(3,4,9,10)          -153.8539         estimate D2E/DX2                !
 ! D45   D(3,4,9,12)            87.8749         estimate D2E/DX2                !
 ! D46   D(5,4,9,8)            167.7983         estimate D2E/DX2                !
 ! D47   D(5,4,9,10)            49.0051         estimate D2E/DX2                !
 ! D48   D(5,4,9,12)           -69.2661         estimate D2E/DX2                !
 ! D49   D(3,6,7,1)            177.4385         estimate D2E/DX2                !
 ! D50   D(3,6,7,8)             60.3411         estimate D2E/DX2                !
 ! D51   D(3,6,7,24)           -60.859          estimate D2E/DX2                !
 ! D52   D(14,6,7,1)           -60.9544         estimate D2E/DX2                !
 ! D53   D(14,6,7,8)          -178.0518         estimate D2E/DX2                !
 ! D54   D(14,6,7,24)           60.7481         estimate D2E/DX2                !
 ! D55   D(15,6,7,1)            56.0913         estimate D2E/DX2                !
 ! D56   D(15,6,7,8)           -61.0061         estimate D2E/DX2                !
 ! D57   D(15,6,7,24)          177.7938         estimate D2E/DX2                !
 ! D58   D(1,7,8,9)           -179.8137         estimate D2E/DX2                !
 ! D59   D(1,7,8,16)            58.4698         estimate D2E/DX2                !
 ! D60   D(1,7,8,17)           -58.4255         estimate D2E/DX2                !
 ! D61   D(6,7,8,9)            -59.9164         estimate D2E/DX2                !
 ! D62   D(6,7,8,16)           178.3671         estimate D2E/DX2                !
 ! D63   D(6,7,8,17)            61.4719         estimate D2E/DX2                !
 ! D64   D(24,7,8,9)            61.2702         estimate D2E/DX2                !
 ! D65   D(24,7,8,16)          -60.4463         estimate D2E/DX2                !
 ! D66   D(24,7,8,17)         -177.3415         estimate D2E/DX2                !
 ! D67   D(7,8,9,4)             45.7643         estimate D2E/DX2                !
 ! D68   D(7,8,9,10)           163.289          estimate D2E/DX2                !
 ! D69   D(7,8,9,12)           -75.7296         estimate D2E/DX2                !
 ! D70   D(16,8,9,4)           168.3942         estimate D2E/DX2                !
 ! D71   D(16,8,9,10)          -74.0811         estimate D2E/DX2                !
 ! D72   D(16,8,9,12)           46.9003         estimate D2E/DX2                !
 ! D73   D(17,8,9,4)           -74.3847         estimate D2E/DX2                !
 ! D74   D(17,8,9,10)           43.1401         estimate D2E/DX2                !
 ! D75   D(17,8,9,12)          164.1214         estimate D2E/DX2                !
 ! D76   D(4,9,10,18)          174.1884         estimate D2E/DX2                !
 ! D77   D(4,9,10,19)           54.7856         estimate D2E/DX2                !
 ! D78   D(4,9,10,20)          -65.8905         estimate D2E/DX2                !
 ! D79   D(8,9,10,18)           54.867          estimate D2E/DX2                !
 ! D80   D(8,9,10,19)          -64.5358         estimate D2E/DX2                !
 ! D81   D(8,9,10,20)          174.7881         estimate D2E/DX2                !
 ! D82   D(12,9,10,18)         -67.5642         estimate D2E/DX2                !
 ! D83   D(12,9,10,19)         173.033          estimate D2E/DX2                !
 ! D84   D(12,9,10,20)          52.3569         estimate D2E/DX2                !
 ! D85   D(4,9,12,25)           49.7034         estimate D2E/DX2                !
 ! D86   D(4,9,12,26)          168.9541         estimate D2E/DX2                !
 ! D87   D(4,9,12,27)          -71.2625         estimate D2E/DX2                !
 ! D88   D(8,9,12,25)          171.7095         estimate D2E/DX2                !
 ! D89   D(8,9,12,26)          -69.0398         estimate D2E/DX2                !
 ! D90   D(8,9,12,27)           50.7436         estimate D2E/DX2                !
 ! D91   D(10,9,12,25)         -67.2912         estimate D2E/DX2                !
 ! D92   D(10,9,12,26)          51.9594         estimate D2E/DX2                !
 ! D93   D(10,9,12,27)         171.7428         estimate D2E/DX2                !
 ! D94   D(47,31,38,32)         -1.7688         estimate D2E/DX2                !
 ! D95   D(47,31,38,34)       -177.8608         estimate D2E/DX2                !
 ! D96   D(37,33,34,35)        -38.7517         estimate D2E/DX2                !
 ! D97   D(37,33,34,38)         83.5724         estimate D2E/DX2                !
 ! D98   D(37,33,34,39)       -158.8733         estimate D2E/DX2                !
 ! D99   D(46,33,34,35)       -157.4772         estimate D2E/DX2                !
 ! D100  D(46,33,34,38)        -35.1531         estimate D2E/DX2                !
 ! D101  D(46,33,34,39)         82.4012         estimate D2E/DX2                !
 ! D102  D(34,33,37,36)         45.3028         estimate D2E/DX2                !
 ! D103  D(34,33,37,44)        -71.921          estimate D2E/DX2                !
 ! D104  D(34,33,37,45)        166.1204         estimate D2E/DX2                !
 ! D105  D(46,33,37,36)        163.3603         estimate D2E/DX2                !
 ! D106  D(46,33,37,44)         46.1365         estimate D2E/DX2                !
 ! D107  D(46,33,37,45)        -75.8221         estimate D2E/DX2                !
 ! D108  D(33,34,35,36)         16.7453         estimate D2E/DX2                !
 ! D109  D(33,34,35,40)       -103.1534         estimate D2E/DX2                !
 ! D110  D(33,34,35,41)        136.9413         estimate D2E/DX2                !
 ! D111  D(38,34,35,36)       -105.321          estimate D2E/DX2                !
 ! D112  D(38,34,35,40)        134.7803         estimate D2E/DX2                !
 ! D113  D(38,34,35,41)         14.875          estimate D2E/DX2                !
 ! D114  D(39,34,35,36)        136.7488         estimate D2E/DX2                !
 ! D115  D(39,34,35,40)         16.8501         estimate D2E/DX2                !
 ! D116  D(39,34,35,41)       -103.0552         estimate D2E/DX2                !
 ! D117  D(33,34,38,31)       -174.749          estimate D2E/DX2                !
 ! D118  D(33,34,38,32)          9.2565         estimate D2E/DX2                !
 ! D119  D(35,34,38,31)        -57.0429         estimate D2E/DX2                !
 ! D120  D(35,34,38,32)        126.9626         estimate D2E/DX2                !
 ! D121  D(39,34,38,31)         64.3242         estimate D2E/DX2                !
 ! D122  D(39,34,38,32)       -111.6704         estimate D2E/DX2                !
 ! D123  D(34,35,36,37)         10.2051         estimate D2E/DX2                !
 ! D124  D(34,35,36,42)        130.8176         estimate D2E/DX2                !
 ! D125  D(34,35,36,43)       -107.8449         estimate D2E/DX2                !
 ! D126  D(40,35,36,37)        129.1307         estimate D2E/DX2                !
 ! D127  D(40,35,36,42)       -110.2569         estimate D2E/DX2                !
 ! D128  D(40,35,36,43)         11.0806         estimate D2E/DX2                !
 ! D129  D(41,35,36,37)       -109.2906         estimate D2E/DX2                !
 ! D130  D(41,35,36,42)         11.3218         estimate D2E/DX2                !
 ! D131  D(41,35,36,43)        132.6593         estimate D2E/DX2                !
 ! D132  D(35,36,37,33)        -33.2333         estimate D2E/DX2                !
 ! D133  D(35,36,37,44)         85.7667         estimate D2E/DX2                !
 ! D134  D(35,36,37,45)       -152.2168         estimate D2E/DX2                !
 ! D135  D(42,36,37,33)       -153.973          estimate D2E/DX2                !
 ! D136  D(42,36,37,44)        -34.9731         estimate D2E/DX2                !
 ! D137  D(42,36,37,45)         87.0434         estimate D2E/DX2                !
 ! D138  D(43,36,37,33)         85.0137         estimate D2E/DX2                !
 ! D139  D(43,36,37,44)       -155.9863         estimate D2E/DX2                !
 ! D140  D(43,36,37,45)        -33.9698         estimate D2E/DX2                !
 --------------------------------------------------------------------------------
 Trust Radius=3.00D-01 FncErr=1.00D-07 GrdErr=1.00D-06 EigMax=2.50D+02 EigMin=1.00D-04
 Number of steps in this run=    282 maximum allowed number of steps=    282.
 GradGradGradGradGradGradGradGradGradGradGradGradGradGradGradGradGradGrad

                          Input orientation:                          
 ---------------------------------------------------------------------
 Center     Atomic      Atomic             Coordinates (Angstroms)
 Number     Number       Type             X           Y           Z
 ---------------------------------------------------------------------
      1          8           0        6.187984    0.213750   -0.908912
      2          1           0        5.756621   -0.627345   -0.730622
      3          6           0        9.696336   -1.146385   -1.439304
      4          7           0       10.349722    0.194057   -1.372236
      5          8           0       11.616575    0.202616   -1.476062
      6          6           0        8.183782   -0.976455   -1.610354
      7          6           0        7.579570    0.053752   -0.668391
      8          6           0        8.225788    1.398214   -0.940267
      9          6           0        9.742255    1.398351   -0.730111
     10          6           0       10.346356    2.627694   -1.410563
     11          6           0       10.267990   -1.876747   -2.654808
     12          6           0       10.107579    1.414371    0.761145
     13          6           0       10.046051   -1.939344   -0.172207
     14          1           0        7.713154   -1.953517   -1.463234
     15          1           0        7.963243   -0.654962   -2.634008
     16          1           0        7.786999    2.163225   -0.294372
     17          1           0        7.997253    1.669297   -1.976755
     18          1           0        9.846619    3.523232   -1.035430
     19          1           0       10.203660    2.572633   -2.491810
     20          1           0       11.412991    2.703548   -1.200183
     21          1           0       10.127621   -1.281153   -3.559117
     22          1           0        9.744980   -2.827733   -2.776400
     23          1           0       11.331266   -2.071575   -2.518199
     24          1           0        7.739256   -0.243111    0.375476
     25          1           0       11.182795    1.265801    0.876041
     26          1           0        9.836042    2.382843    1.187158
     27          1           0        9.585826    0.640671    1.325854
     28          1           0        9.615850   -2.941036   -0.242624
     29          1           0       11.131364   -2.036027   -0.103537
     30          1           0        9.664538   -1.469100    0.734887
     31          8           0       18.729755    2.569369   -3.305063
     32          8           0       18.776907    0.625609   -4.409478
     33          7           0       16.022686    0.260365   -4.129044
     34          6           0       16.639036    1.498811   -3.674765
     35          6           0       16.191958    1.640279   -2.199040
     36          6           0       15.694162    0.230165   -1.810244
     37          6           0       16.130984   -0.654130   -2.979877
     38          6           0       18.154718    1.476059   -3.826740
     39          1           0       16.300982    2.349626   -4.274792
     40          1           0       15.397924    2.381720   -2.117497
     41          1           0       17.025658    1.957028   -1.575645
     42          1           0       16.127357   -0.106634   -0.868835
     43          1           0       14.606483    0.222816   -1.721102
     44          1           0       17.162431   -0.989992   -2.818629
     45          1           0       15.488382   -1.524276   -3.122446
     46          1           0       16.535806   -0.104280   -4.926527
     47          1           0       19.683911    2.517169   -3.459497
 ---------------------------------------------------------------------
                    Distance matrix (angstroms):
                    1          2          3          4          5
     1  O    0.000000
     2  H    0.961926   0.000000
     3  C    3.799976   4.036457   0.000000
     4  N    4.187496   4.709878   1.492714   0.000000
     5  O    5.458148   5.965197   2.347014   1.271129   0.000000
     6  C    2.427307   2.605171   1.531651   2.473478   3.632122
     7  C    1.421253   1.947026   2.552515   2.861612   4.119697
     8  C    2.357241   3.200567   2.981029   2.479453   3.635102
     9  C    3.750745   4.470875   2.642110   1.493876   2.345059
    10  C    4.834339   5.667739   3.829755   2.433941   2.738385
    11  C    4.905587   5.061220   1.528943   2.437191   2.744426
    12  C    4.426489   5.032376   3.401260   2.469638   2.958127
    13  C    4.479200   4.520219   1.535128   2.466513   2.958813
    14  H    2.707483   2.474565   2.141272   3.401742   4.459346
    15  H    2.623387   2.914245   2.161579   2.829873   3.927227
    16  H    2.595180   3.478510   3.988729   3.406899   4.461618
    17  H    2.555848   3.442070   3.332237   2.841810   3.937174
    18  H    4.935006   5.835090   4.689459   3.383779   3.788587
    19  H    4.918897   5.754807   3.898236   2.632946   2.940247
    20  H    5.795225   6.581023   4.222093   2.730877   2.524325
    21  H    4.977857   5.247236   2.167435   2.647267   2.959337
    22  H    5.038884   4.993388   2.148749   3.386533   3.791670
    23  H    5.853705   6.029751   2.166330   2.722085   2.517816
    24  H    2.065144   2.302592   2.817711   3.171773   4.319776
    25  H    5.407495   5.967305   3.659102   2.626289   2.617425
    26  H    4.733582   5.420405   4.401508   3.406633   3.875104
    27  H    4.089226   4.527667   3.294219   2.839488   3.488061
    28  H    4.706047   4.526031   2.158540   3.412243   3.925152
    29  H    5.490640   5.591555   2.152915   2.682133   2.670351
    30  H    4.197676   4.257709   2.198241   2.770476   3.390189
    31  O   12.984086  13.606944   9.944372   8.922045   7.716482
    32  O   13.073048  13.587926   9.716927   8.968195   7.749465
    33  N   10.348564  10.850317   7.016861   6.307686   5.143487
    34  C   10.886955  11.472378   7.758571   6.823451   5.633784
    35  C   10.187194  10.779361   7.108854   6.075104   4.850124
    36  C    9.548826  10.032728   6.164933   5.362480   4.091351
    37  C   10.193398  10.615426   6.634785   6.060274   4.834807
    38  C   12.381836  12.950794   9.171765   8.281671   7.063615
    39  H   10.870319  11.515513   7.992711   6.963390   5.863975
    40  H    9.538541  10.194735   6.739108   5.552083   4.411183
    41  H   10.997214  11.592422   7.960447   6.907790   5.687359
    42  H    9.944616  10.384720   6.539461   5.807314   4.561964
    43  H    8.457591   8.945606   5.105258   4.271129   3.000000
    44  H   11.204218  11.601025   7.594048   7.064491   5.829350
    45  H    9.716886  10.061435   6.043473   5.694008   4.547926
    46  H   11.104944  11.578862   7.747584   7.140702   6.016538
    47  H   13.926639  14.536304  10.828410   9.842794   8.623983
                    6          7          8          9         10
     6  C    0.000000
     7  C    1.521083   0.000000
     8  C    2.467759   1.516276   0.000000
     9  C    2.973780   2.547344   1.530960   0.000000
    10  C    4.207913   3.851117   2.495918   1.529456   0.000000
    11  C    2.499066   3.860088   4.223223   3.834987   4.673786
    12  C    3.878279   3.207131   2.536967   1.535436   2.499096
    13  C    2.542335   3.209698   3.878475   3.397610   4.741471
    14  H    1.094434   2.163042   3.430800   3.986194   5.284318
    15  H    1.095382   2.124413   2.674550   3.317499   4.236965
    16  H    3.427366   2.152392   1.093141   2.144278   2.830534
    17  H    2.677507   2.120439   1.095455   2.161612   2.599497
    18  H    4.831433   4.160712   2.674294   2.149240   1.091994
    19  H    4.177667   4.068841   2.774621   2.166891   1.092011
    20  H    4.913090   4.690345   3.453942   2.171604   1.089827
    21  H    2.769301   4.078092   4.201708   3.915549   4.465783
    22  H    2.687793   4.175603   4.851593   4.695433   5.655868
    23  H    3.454001   4.691911   4.916635   4.214570   4.927477
    24  H    2.163081   1.096944   2.159130   2.815799   4.269476
    25  H    4.494881   4.103360   3.472808   2.161585   2.789792
    26  H    4.673427   3.736227   2.844002   2.157299   2.658670
    27  H    3.633475   2.889040   2.749342   2.196711   3.466215
    28  H    2.789459   3.646432   4.609563   4.368512   5.736591
    29  H    3.475835   4.159504   4.575642   3.757282   4.906613
    30  H    2.817001   2.938598   3.619065   3.220952   4.674564
    31  O   11.254441  11.730601  10.830383   9.422145   8.594993
    32  O   11.073211  11.819607  11.133663   9.785694   9.169298
    33  N    8.325979   9.127158   8.500271   7.231291   6.724217
    34  C    9.048759   9.654035   8.847052   7.499777   6.782242
    35  C    8.445397   8.890061   8.068641   6.619286   5.980614
    36  C    7.609316   8.196435   7.609061   6.160888   5.874259
    37  C    8.070781   8.886548   8.418090   7.077428   6.833377
    38  C   10.504606  11.127977  10.340282   8.964635   8.254374
    39  H    9.167932   9.712888   8.788230   7.515756   6.613524
    40  H    7.973605   8.285288   7.334350   5.905798   5.106721
    41  H    9.315862   9.678540   8.840457   7.353571   6.714918
    42  H    8.025386   8.551641   8.043909   6.561536   6.417943
    43  H    6.534646   7.107340   6.534870   5.101437   4.901893
    44  H    9.059594   9.876444   9.439034   8.070012   7.844054
    45  H    7.479553   8.429820   8.127000   6.876263   6.827139
    46  H    9.028510   9.918208   9.338316   8.125278   7.624630
    47  H   12.160498  12.663876  11.785040  10.370044   9.560349
                   11         12         13         14         15
    11  C    0.000000
    12  C    4.746148   0.000000
    13  C    2.493288   3.481715   0.000000
    14  H    2.820094   4.692952   2.666338   0.000000
    15  H    2.608649   4.517453   3.471050   1.766211   0.000000
    16  H    5.296069   2.657064   4.685009   4.280100   3.667034
    17  H    4.265024   3.466202   4.525070   3.670041   2.415640
    18  H    5.653292   2.782638   5.533956   5.893171   4.853850
    19  H    4.452829   3.454348   5.075760   5.267506   3.931547
    20  H    4.940249   2.685682   4.947899   5.953675   5.023565
    21  H    1.091884   5.092241   3.451236   3.267178   2.435667
    22  H    1.092107   5.535445   2.767978   2.572348   2.813502
    23  H    1.089576   4.939972   2.678235   3.770626   3.655651
    24  H    4.271520   2.916323   2.915213   2.511379   3.045782
    25  H    4.814496   1.091496   3.558647   5.279642   5.135688
    26  H    5.752512   1.092317   4.535777   5.507744   5.228474
    27  H    4.759035   1.090749   3.018687   4.244493   4.471236
    28  H    2.715995   4.496545   1.092437   2.466847   3.698102
    29  H    2.698105   3.701494   1.091773   3.679639   4.283412
    30  H    3.467039   2.917427   1.090643   2.978976   3.860917
    31  O    9.580827   9.602603  10.273753  12.050491  11.258970
    32  O    9.041146  10.124956  10.037993  11.736221  11.033018
    33  N    6.313251   7.761067   7.497695   9.003118   8.247883
    34  C    7.281821   7.895844   8.219262   9.822464   8.999516
    35  C    6.904389   6.770037   7.395534   9.238338   8.553893
    36  C    5.881811   6.262930   6.268260   8.281628   7.824905
    37  C    5.997929   7.386159   6.823576   8.651501   8.175060
    38  C    8.649578   9.263311   9.527385  11.241637  10.479982
    39  H    7.542120   8.037014   8.622681  10.008630   9.013191
    40  H    6.688757   6.100008   7.148307   8.847487   8.047527
    41  H    7.844010   7.322218   8.115803  10.100877   9.490521
    42  H    6.376141   6.419347   6.389554   8.634993   8.370738
    43  H    4.909429   5.274608   5.279351   7.233319   6.762878
    44  H    6.953164   8.268415   7.651646   9.594494   9.207138
    45  H    5.253134   7.257477   6.204447   7.961872   7.590915
    46  H    6.898396   8.716537   8.251542   9.656773   8.890879
    47  H   10.421784  10.523123  11.115535  12.933334  12.170370
                   16         17         18         19         20
    16  H    0.000000
    17  H    1.765951   0.000000
    18  H    2.576979   2.782683   0.000000
    19  H    3.291899   2.439166   1.775432   0.000000
    20  H    3.776276   3.652397   1.775541   1.774238   0.000000
    21  H    5.291579   3.968311   5.434158   3.999574   4.805683
    22  H    5.907945   4.890528   6.586051   5.427277   5.988471
    23  H    5.953215   5.040132   5.975336   4.779211   4.954356
    24  H    2.498285   3.042508   4.540592   4.714131   4.966068
    25  H    3.702252   4.295222   3.245779   3.742851   2.535905
    26  H    2.538058   3.728356   2.498099   3.702157   2.879065
    27  H    2.859909   3.806424   3.735349   4.323049   3.738296
    28  H    5.422255   5.184808   6.516790   5.983720   6.000664
    29  H    5.371677   5.202021   5.781380   5.272972   4.872937
    30  H    4.216434   4.470165   5.300052   5.199792   4.920628
    31  O   11.356633  10.851780   9.217982   8.564793   7.614694
    32  O   11.835389  11.099926   9.976496   8.998273   8.297268
    33  N    9.281816   8.427633   7.639407   6.472107   5.983030
    34  C    9.498792   8.808672   7.563153   6.630726   5.906478
    35  C    8.633920   8.197771   6.720330   6.067513   4.996677
    36  C    8.279964   7.832064   6.755619   6.008103   4.981789
    37  C    9.207144   8.518341   7.792591   6.766341   6.058116
    38  C   10.974489  10.326368   9.000380   8.136574   7.338693
    39  H    9.400340   8.642669   7.316393   6.356578   5.785407
    40  H    7.829285   7.436214   5.769827   5.211231   4.101796
    41  H    9.329362   9.041890   7.367729   6.910715   5.674530
    42  H    8.662785   8.395237   7.256125   6.700948   5.498378
    43  H    7.232296   6.770493   5.832597   5.049800   4.077226
    44  H   10.208495   9.580243   8.778957   7.824551   7.022654
    45  H    8.994830   8.223657   7.852545   6.716447   6.178868
    46  H   10.155790   9.206173   8.546619   7.293132   6.929125
    47  H   12.315835  11.810816  10.181384   9.529672   8.575975
                   21         22         23         24         25
    21  H    0.000000
    22  H    1.775097   0.000000
    23  H    1.776806   1.776160   0.000000
    24  H    4.718351   4.542854   4.961771   0.000000
    25  H    5.222164   5.671389   4.762456   3.792801   0.000000
    26  H    6.003083   6.547380   5.983912   3.457018   1.777166
    27  H    5.277300   5.374351   5.017926   2.257013   1.772972
    28  H    3.743828   2.539593   2.979405   3.344017   4.626468
    29  H    3.676733   3.113367   2.423183   3.866574   3.444457
    30  H    4.322990   3.765832   3.704528   2.310614   3.131248
    31  O    9.428031  10.494493   8.768988  11.926755   8.725682
    32  O    8.897697   9.806540   8.141825  12.061517   9.274540
    33  N    6.119876   7.125699   5.481075   9.442425   7.034651
    34  C    7.080967   8.188653   6.500593   9.932010   7.108775
    35  C    6.867369   7.865113   6.124218   9.034570   5.889658
    36  C    6.027355   6.758473   4.983379   8.263285   5.351738
    37  C    6.063748   6.748851   5.025891   9.047012   6.560397
    38  C    8.491650   9.505237   7.801120  11.362042   8.412375
    39  H    7.197578   8.487131   6.879732  10.082184   7.341770
    40  H    6.578069   7.715460   6.044014   8.471118   5.289032
    41  H    7.874191   8.794545   7.038760   9.740880   6.373979
    42  H    6.679367   7.195687   5.439107   8.480989   5.420043
    43  H    5.069558   5.835556   4.077577   7.195244   4.422059
    44  H    7.079664   7.641836   5.938229   9.977794   7.382089
    45  H    5.384009   5.899612   4.236303   8.598011   6.504653
    46  H    6.657302   7.625979   6.062799  10.271796   8.012593
    47  H   10.283961  11.305616   9.576497  12.845269   9.624541
                   26         27         28         29         30
    26  H    0.000000
    27  H    1.765505   0.000000
    28  H    5.516924   3.910198   0.000000
    29  H    4.782276   3.405372   1.770641   0.000000
    30  H    3.882194   2.192389   1.767624   1.782117   0.000000
    31  O    9.965589  10.429607  11.081803   9.444310  10.714877
    32  O   10.693422  10.833754  10.677481   9.169502  10.671812
    33  N    8.428610   8.445928   8.148667   6.738186   8.189927
    34  C    8.408361   8.688519   8.989825   7.455414   8.769101
    35  C    7.239849   7.554143   8.249921   6.596663   7.802780
    36  C    6.923584   6.878618   7.032768   5.372857   6.761772
    37  C    8.137179   7.940713   7.427615   5.931203   7.501904
    38  C    9.755091  10.033594  10.260062   8.690482  10.077974
    39  H    8.463418   8.909606   9.430826   7.959791   9.149969
    40  H    6.469566   6.976274   8.079558   6.463440   7.472391
    41  H    7.713947   8.093367   8.981827   7.270095   8.441741
    42  H    7.071439   6.940227   7.129214   5.410008   6.796784
    43  H    5.990058   5.887745   6.091163   4.449195   5.772112
    44  H    9.005461   8.788671   8.209340   6.696244   8.311162
    45  H    8.110932   7.701593   6.692325   5.325346   6.985644
    46  H    9.404773   9.378136   8.824507   7.496724   9.007145
    47  H   10.889902  11.331026  11.895635  10.253786  11.570265
                   31         32         33         34         35
    31  O    0.000000
    32  O    2.236103   0.000000
    33  N    3.652214   2.792451   0.000000
    34  C    2.377790   2.423382   1.456023   0.000000
    35  C    2.920087   3.549303   2.378598   1.548437   0.000000
    36  C    4.113537   4.051631   2.342151   2.445136   1.545116
    37  C    4.153349   3.268395   1.472621   2.318651   2.424405
    38  C    1.340948   1.204146   2.472824   1.523452   2.555152
    39  H    2.624424   3.020030   2.112748   1.094623   2.196317
    40  H    3.542121   4.444618   2.989447   2.178295   1.089438
    41  H    2.503956   3.587500   3.225595   2.183059   1.088120
    42  H    4.457429   4.482460   3.282469   3.272997   2.196661
    43  H    5.001661   4.978157   2.793783   3.094549   2.179761
    44  H    3.919460   2.783433   2.139999   2.683477   2.871242
    45  H    5.224727   4.134351   2.117466   3.281480   3.370772
    46  H    3.819811   2.413009   1.015991   2.036532   3.255903
    47  H    0.967981   2.302850   4.352703   3.217866   3.814633
                   36         37         38         39         40
    36  C    0.000000
    37  C    1.529978   0.000000
    38  C    3.416554   3.057839   0.000000
    39  H    3.306712   3.275402   2.097667   0.000000
    40  H    2.193480   3.239979   3.367736   2.338902   0.000000
    41  H    2.193165   3.096846   2.563890   2.822177   1.767339
    42  H    1.089652   2.180886   3.919733   4.202845   2.878044
    43  H    1.091351   2.162788   4.312111   3.730413   2.333318
    44  H    2.159036   1.096671   2.842943   3.743735   3.869562
    45  H    2.200518   1.091062   4.075216   4.122540   4.034217
    46  H    3.245218   2.062926   2.515528   2.549815   3.919901
    47  H    4.885542   4.786488   1.886056   3.483818   4.493217
                   41         42         43         44         45
    41  H    0.000000
    42  H    2.359073   0.000000
    43  H    2.980110   1.774248   0.000000
    44  H    3.201349   2.377687   3.034525   0.000000
    45  H    4.107954   2.738021   2.407040   1.783313   0.000000
    46  H    3.964512   4.078198   3.755533   2.370733   2.523528
    47  H    3.305899   5.122982   5.836639   4.366778   5.835181
                   46         47
    46  H    0.000000
    47  H    4.351406   0.000000
 Stoichiometry    C14H27N2O4(2)
 Framework group  C1[X(C14H27N2O4)]
 Deg. of freedom   135
 Full point group                 C1      NOp   1
 Largest Abelian subgroup         C1      NOp   1
 Largest concise Abelian subgroup C1      NOp   1
                         Standard orientation:                         
 ---------------------------------------------------------------------
 Center     Atomic      Atomic             Coordinates (Angstroms)
 Number     Number       Type             X           Y           Z
 ---------------------------------------------------------------------
      1          8           0        6.231175   -0.265061   -0.840432
      2          1           0        6.788857    0.471683   -0.573035
      3          6           0        2.892375    1.298302    0.080507
      4          7           0        2.131855    0.018987   -0.034197
      5          8           0        0.892463    0.080527    0.241286
      6          6           0        4.270962    1.140335   -0.567951
      7          6           0        4.985923   -0.140889   -0.166718
      8          6           0        4.139422   -1.323768   -0.594884
      9          6           0        2.748130   -1.339612    0.043780
     10          6           0        1.843805   -2.292760   -0.739126
     11          6           0        2.099373    2.373414   -0.663098
     12          6           0        2.803692   -1.785822    1.511898
     13          6           0        2.995113    1.690277    1.561190
     14          1           0        4.873346    2.014900   -0.303273
     15          1           0        4.165576    1.130185   -1.658205
     16          1           0        4.646291   -2.258988   -0.343078
     17          1           0        4.043994   -1.282241   -1.685384
     18          1           0        2.320047   -3.274167   -0.788970
     19          1           0        1.691819   -1.924006   -1.755694
     20          1           0        0.873521   -2.394767   -0.253465
     21          1           0        1.918301    2.068702   -1.695849
     22          1           0        2.675559    3.301150   -0.666965
     23          1           0        1.143429    2.551554   -0.171557
     24          1           0        5.152102   -0.162112    0.917357
     25          1           0        1.825088   -1.645033    1.974366
     26          1           0        3.067404   -2.844921    1.555748
     27          1           0        3.545240   -1.230757    2.087871
     28          1           0        3.502443    2.654092    1.645418
     29          1           0        1.988280    1.795553    1.970056
     30          1           0        3.552462    0.960741    2.149952
     31          8           0       -6.673632   -1.417785    0.010277
     32          8           0       -6.795336    0.766511   -0.452533
     33          7           0       -4.045910    0.947376   -0.906105
     34          6           0       -4.653767   -0.350522   -0.649251
     35          6           0       -3.840898   -0.936836    0.531061
     36          6           0       -3.096734    0.278606    1.127976
     37          6           0       -3.730680    1.482910    0.428979
     38          6           0       -6.140350   -0.237173   -0.335997
     39          1           0       -4.592541   -0.995145   -1.531811
     40          1           0       -3.145763   -1.693147    0.168216
     41          1           0       -4.503929   -1.398400    1.260001
     42          1           0       -3.215126    0.334286    2.209745
     43          1           0       -2.032633    0.225769    0.891455
     44          1           0       -4.633233    1.787388    0.972466
     45          1           0       -3.055304    2.336025    0.348495
     46          1           0       -4.711288    1.547659   -1.384823
     47          1           0       -7.621111   -1.292851    0.164100
 ---------------------------------------------------------------------
 Rotational constants (GHZ):           0.7720448           0.0945625           0.0896305
 Standard basis: 6-311G(d,p) (5D, 7F)
 There are   542 symmetry adapted cartesian basis functions of A   symmetry.
 There are   522 symmetry adapted basis functions of A   symmetry.
   522 basis functions,   856 primitive gaussians,   542 cartesian basis functions
    79 alpha electrons       78 beta electrons
       nuclear repulsion energy      1620.2532262080 Hartrees.
 NAtoms=   47 NActive=   47 NUniq=   47 SFac= 1.00D+00 NAtFMM=   60 NAOKFM=F Big=F
 Integral buffers will be    131072 words long.
 Raffenetti 2 integral format.
 Two-electron integral symmetry is turned on.
 ------------------------------------------------------------------------------
 Polarizable Continuum Model (PCM)
 =================================
 Model                : PCM.
 Atomic radii         : UFF (Universal Force Field).
 Polarization charges : Total charges.
 Charge compensation  : None.
 Solution method      : On-the-fly selection.
 Cavity type          : Scaled VdW (van der Waals Surface) (Alpha=1.100).
 Cavity algorithm     : GePol (No added spheres)
                        Default sphere list used, NSphG=   47.
                        Lebedev-Laikov grids with approx.  5.0 points / Ang**2.
                        Smoothing algorithm: York/Karplus (Gamma=1.0000).
                        Polarization charges: spherical gaussians, with
                                              point-specific exponents (IZeta= 3).
                        Self-potential: point-specific (ISelfS= 7).
                        Self-field    : sphere-specific E.n sum rule (ISelfD= 2).
 1st derivatives      : Analytical E(r).r(x)/FMM algorithm (CHGder, D1EAlg=3).
                        Cavity 1st derivative terms included.
 Solvent              : Water, Eps=  78.355300 Eps(inf)=   1.777849
 ------------------------------------------------------------------------------
 One-electron integrals computed using PRISM.
 NBasis=   522 RedAO= T EigKep=  7.48D-04  NBF=   522
 NBsUse=   522 1.00D-06 EigRej= -1.00D+00 NBFU=   522
 ExpMin= 1.03D-01 ExpMax= 8.59D+03 ExpMxC= 1.30D+03 IAcc=3 IRadAn=         5 AccDes= 0.00D+00
 Harris functional with IExCor= 1009 and IRadAn=       5 diagonalized for initial guess.
 HarFok:  IExCor= 1009 AccDes= 0.00D+00 IRadAn=         5 IDoV= 1 UseB2=F ITyADJ=14
 ICtDFT=  3500011 ScaDFX=  1.000000  1.000000  1.000000  1.000000
 FoFCou: FMM=F IPFlag=           0 FMFlag=      100000 FMFlg1=           0
         NFxFlg=           0 DoJE=T BraDBF=F KetDBF=T FulRan=T
         wScrn=  0.000000 ICntrl=       500 IOpCl=  0 I1Cent=   200000004 NGrid=           0
         NMat0=    1 NMatS0=      1 NMatT0=    0 NMatD0=    1 NMtDS0=    0 NMtDT0=    0
 Petite list used in FoFCou.
 Initial guess <Sx>= 0.0000 <Sy>= 0.0000 <Sz>= 0.5000 <S**2>= 0.7500 S= 0.5000
 Requested convergence on RMS density matrix=1.00D-08 within 128 cycles.
 Requested convergence on MAX density matrix=1.00D-06.
 Requested convergence on             energy=1.00D-06.
 No special actions if energy rises.
 Inv3:  Mode=1 IEnd=    29147067.
 Iteration    1 A*A^-1 deviation from unit magnitude is 1.42D-14 for    565.
 Iteration    1 A*A^-1 deviation from orthogonality  is 5.26D-15 for   3013    173.
 Iteration    1 A^-1*A deviation from unit magnitude is 1.42D-14 for    565.
 Iteration    1 A^-1*A deviation from orthogonality  is 4.27D-15 for   3112    938.
 Error on total polarization charges =  0.01300
 SCF Done:  E(UM062X) =  -959.964309564     A.U. after   15 cycles
            NFock= 15  Conv=0.36D-08     -V/T= 2.0036
 <Sx>= 0.0000 <Sy>= 0.0000 <Sz>= 0.5000 <S**2>= 0.7547 S= 0.5024
 <L.S>= 0.000000000000E+00
 Annihilation of the first spin contaminant:
 S**2 before annihilation     0.7547,   after     0.7500

 **********************************************************************

            Population analysis using the SCF density.

 **********************************************************************

 Orbital symmetries:
 Alpha Orbitals:
       Occupied  (A) (A) (A) (A) (A) (A) (A) (A) (A) (A) (A) (A)
                 (A) (A) (A) (A) (A) (A) (A) (A) (A) (A) (A) (A)
                 (A) (A) (A) (A) (A) (A) (A) (A) (A) (A) (A) (A)
                 (A) (A) (A) (A) (A) (A) (A) (A) (A) (A) (A) (A)
                 (A) (A) (A) (A) (A) (A) (A) (A) (A) (A) (A) (A)
                 (A) (A) (A) (A) (A) (A) (A) (A) (A) (A) (A) (A)
                 (A) (A) (A) (A) (A) (A) (A)
       Virtual   (A) (A) (A) (A) (A) (A) (A) (A) (A) (A) (A) (A)
                 (A) (A) (A) (A) (A) (A) (A) (A) (A) (A) (A) (A)
                 (A) (A) (A) (A) (A) (A) (A) (A) (A) (A) (A) (A)
                 (A) (A) (A) (A) (A) (A) (A) (A) (A) (A) (A) (A)
                 (A) (A) (A) (A) (A) (A) (A) (A) (A) (A) (A) (A)
                 (A) (A) (A) (A) (A) (A) (A) (A) (A) (A) (A) (A)
                 (A) (A) (A) (A) (A) (A) (A) (A) (A) (A) (A) (A)
                 (A) (A) (A) (A) (A) (A) (A) (A) (A) (A) (A) (A)
                 (A) (A) (A) (A) (A) (A) (A) (A) (A) (A) (A) (A)
                 (A) (A) (A) (A) (A) (A) (A) (A) (A) (A) (A) (A)
                 (A) (A) (A) (A) (A) (A) (A) (A) (A) (A) (A) (A)
                 (A) (A) (A) (A) (A) (A) (A) (A) (A) (A) (A) (A)
                 (A) (A) (A) (A) (A) (A) (A) (A) (A) (A) (A) (A)
                 (A) (A) (A) (A) (A) (A) (A) (A) (A) (A) (A) (A)
                 (A) (A) (A) (A) (A) (A) (A) (A) (A) (A) (A) (A)
                 (A) (A) (A) (A) (A) (A) (A) (A) (A) (A) (A) (A)
                 (A) (A) (A) (A) (A) (A) (A) (A) (A) (A) (A) (A)
                 (A) (A) (A) (A) (A) (A) (A) (A) (A) (A) (A) (A)
                 (A) (A) (A) (A) (A) (A) (A) (A) (A) (A) (A) (A)
                 (A) (A) (A) (A) (A) (A) (A) (A) (A) (A) (A) (A)
                 (A) (A) (A) (A) (A) (A) (A) (A) (A) (A) (A) (A)
                 (A) (A) (A) (A) (A) (A) (A) (A) (A) (A) (A) (A)
                 (A) (A) (A) (A) (A) (A) (A) (A) (A) (A) (A) (A)
                 (A) (A) (A) (A) (A) (A) (A) (A) (A) (A) (A) (A)
                 (A) (A) (A) (A) (A) (A) (A) (A) (A) (A) (A) (A)
                 (A) (A) (A) (A) (A) (A) (A) (A) (A) (A) (A) (A)
                 (A) (A) (A) (A) (A) (A) (A) (A) (A) (A) (A) (A)
                 (A) (A) (A) (A) (A) (A) (A) (A) (A) (A) (A) (A)
                 (A) (A) (A) (A) (A) (A) (A) (A) (A) (A) (A) (A)
                 (A) (A) (A) (A) (A) (A) (A) (A) (A) (A) (A) (A)
                 (A) (A) (A) (A) (A) (A) (A) (A) (A) (A) (A) (A)
                 (A) (A) (A) (A) (A) (A) (A) (A) (A) (A) (A) (A)
                 (A) (A) (A) (A) (A) (A) (A) (A) (A) (A) (A) (A)
                 (A) (A) (A) (A) (A) (A) (A) (A) (A) (A) (A) (A)
                 (A) (A) (A) (A) (A) (A) (A) (A) (A) (A) (A) (A)
                 (A) (A) (A) (A) (A) (A) (A) (A) (A) (A) (A) (A)
                 (A) (A) (A) (A) (A) (A) (A) (A) (A) (A) (A)
 Beta  Orbitals:
       Occupied  (A) (A) (A) (A) (A) (A) (A) (A) (A) (A) (A) (A)
                 (A) (A) (A) (A) (A) (A) (A) (A) (A) (A) (A) (A)
                 (A) (A) (A) (A) (A) (A) (A) (A) (A) (A) (A) (A)
                 (A) (A) (A) (A) (A) (A) (A) (A) (A) (A) (A) (A)
                 (A) (A) (A) (A) (A) (A) (A) (A) (A) (A) (A) (A)
                 (A) (A) (A) (A) (A) (A) (A) (A) (A) (A) (A) (A)
                 (A) (A) (A) (A) (A) (A)
       Virtual   (A) (A) (A) (A) (A) (A) (A) (A) (A) (A) (A) (A)
                 (A) (A) (A) (A) (A) (A) (A) (A) (A) (A) (A) (A)
                 (A) (A) (A) (A) (A) (A) (A) (A) (A) (A) (A) (A)
                 (A) (A) (A) (A) (A) (A) (A) (A) (A) (A) (A) (A)
                 (A) (A) (A) (A) (A) (A) (A) (A) (A) (A) (A) (A)
                 (A) (A) (A) (A) (A) (A) (A) (A) (A) (A) (A) (A)
                 (A) (A) (A) (A) (A) (A) (A) (A) (A) (A) (A) (A)
                 (A) (A) (A) (A) (A) (A) (A) (A) (A) (A) (A) (A)
                 (A) (A) (A) (A) (A) (A) (A) (A) (A) (A) (A) (A)
                 (A) (A) (A) (A) (A) (A) (A) (A) (A) (A) (A) (A)
                 (A) (A) (A) (A) (A) (A) (A) (A) (A) (A) (A) (A)
                 (A) (A) (A) (A) (A) (A) (A) (A) (A) (A) (A) (A)
                 (A) (A) (A) (A) (A) (A) (A) (A) (A) (A) (A) (A)
                 (A) (A) (A) (A) (A) (A) (A) (A) (A) (A) (A) (A)
                 (A) (A) (A) (A) (A) (A) (A) (A) (A) (A) (A) (A)
                 (A) (A) (A) (A) (A) (A) (A) (A) (A) (A) (A) (A)
                 (A) (A) (A) (A) (A) (A) (A) (A) (A) (A) (A) (A)
                 (A) (A) (A) (A) (A) (A) (A) (A) (A) (A) (A) (A)
                 (A) (A) (A) (A) (A) (A) (A) (A) (A) (A) (A) (A)
                 (A) (A) (A) (A) (A) (A) (A) (A) (A) (A) (A) (A)
                 (A) (A) (A) (A) (A) (A) (A) (A) (A) (A) (A) (A)
                 (A) (A) (A) (A) (A) (A) (A) (A) (A) (A) (A) (A)
                 (A) (A) (A) (A) (A) (A) (A) (A) (A) (A) (A) (A)
                 (A) (A) (A) (A) (A) (A) (A) (A) (A) (A) (A) (A)
                 (A) (A) (A) (A) (A) (A) (A) (A) (A) (A) (A) (A)
                 (A) (A) (A) (A) (A) (A) (A) (A) (A) (A) (A) (A)
                 (A) (A) (A) (A) (A) (A) (A) (A) (A) (A) (A) (A)
                 (A) (A) (A) (A) (A) (A) (A) (A) (A) (A) (A) (A)
                 (A) (A) (A) (A) (A) (A) (A) (A) (A) (A) (A) (A)
                 (A) (A) (A) (A) (A) (A) (A) (A) (A) (A) (A) (A)
                 (A) (A) (A) (A) (A) (A) (A) (A) (A) (A) (A) (A)
                 (A) (A) (A) (A) (A) (A) (A) (A) (A) (A) (A) (A)
                 (A) (A) (A) (A) (A) (A) (A) (A) (A) (A) (A) (A)
                 (A) (A) (A) (A) (A) (A) (A) (A) (A) (A) (A) (A)
                 (A) (A) (A) (A) (A) (A) (A) (A) (A) (A) (A) (A)
                 (A) (A) (A) (A) (A) (A) (A) (A) (A) (A) (A) (A)
                 (A) (A) (A) (A) (A) (A) (A) (A) (A) (A) (A) (A)
 The electronic state is 2-A.
 Alpha  occ. eigenvalues --  -19.66986 -19.62153 -19.62035 -19.61794 -14.83680
 Alpha  occ. eigenvalues --  -14.73035 -10.67893 -10.59168 -10.59128 -10.59126
 Alpha  occ. eigenvalues --  -10.58058 -10.55547 -10.53953 -10.53770 -10.53767
 Alpha  occ. eigenvalues --  -10.53114 -10.52939 -10.52910 -10.52591 -10.52579
 Alpha  occ. eigenvalues --   -1.24440  -1.23109  -1.14954  -1.14915  -1.03472
 Alpha  occ. eigenvalues --   -0.98072  -0.92840  -0.86407  -0.86072  -0.84490
 Alpha  occ. eigenvalues --   -0.82076  -0.79189  -0.78261  -0.78081  -0.74333
 Alpha  occ. eigenvalues --   -0.69106  -0.68655  -0.66551  -0.66231  -0.61593
 Alpha  occ. eigenvalues --   -0.60515  -0.59291  -0.58980  -0.57989  -0.57405
 Alpha  occ. eigenvalues --   -0.56650  -0.55759  -0.53824  -0.52849  -0.52795
 Alpha  occ. eigenvalues --   -0.51336  -0.49997  -0.49769  -0.48720  -0.48184
 Alpha  occ. eigenvalues --   -0.47947  -0.47351  -0.46256  -0.45721  -0.44468
 Alpha  occ. eigenvalues --   -0.44413  -0.43929  -0.43422  -0.43352  -0.43092
 Alpha  occ. eigenvalues --   -0.41601  -0.41513  -0.40690  -0.40428  -0.40016
 Alpha  occ. eigenvalues --   -0.39883  -0.39729  -0.39711  -0.37869  -0.36068
 Alpha  occ. eigenvalues --   -0.34674  -0.33567  -0.30331  -0.26480
 Alpha virt. eigenvalues --    0.04166   0.06414   0.07327   0.07930   0.08559
 Alpha virt. eigenvalues --    0.09106   0.09640   0.10249   0.10766   0.11204
 Alpha virt. eigenvalues --    0.11532   0.12985   0.13594   0.14410   0.14650
 Alpha virt. eigenvalues --    0.14990   0.15555   0.16101   0.16367   0.17037
 Alpha virt. eigenvalues --    0.17216   0.17954   0.18307   0.18441   0.19110
 Alpha virt. eigenvalues --    0.19678   0.20256   0.20945   0.21021   0.21150
 Alpha virt. eigenvalues --    0.22002   0.22172   0.23228   0.24121   0.24253
 Alpha virt. eigenvalues --    0.25709   0.26317   0.27609   0.28780   0.29129
 Alpha virt. eigenvalues --    0.29286   0.29699   0.30070   0.31261   0.31529
 Alpha virt. eigenvalues --    0.32029   0.33088   0.34224   0.34755   0.35551
 Alpha virt. eigenvalues --    0.36119   0.36831   0.37549   0.37903   0.39306
 Alpha virt. eigenvalues --    0.41744   0.42180   0.42452   0.42708   0.43944
 Alpha virt. eigenvalues --    0.44474   0.44889   0.45794   0.46021   0.47769
 Alpha virt. eigenvalues --    0.48492   0.48628   0.49336   0.50369   0.50916
 Alpha virt. eigenvalues --    0.52043   0.52186   0.52795   0.53719   0.53858
 Alpha virt. eigenvalues --    0.54779   0.54882   0.57153   0.57553   0.58194
 Alpha virt. eigenvalues --    0.59446   0.59655   0.60299   0.60952   0.61380
 Alpha virt. eigenvalues --    0.61526   0.62186   0.62566   0.62674   0.62934
 Alpha virt. eigenvalues --    0.63475   0.63847   0.64220   0.64604   0.64654
 Alpha virt. eigenvalues --    0.65179   0.65468   0.65686   0.65932   0.66342
 Alpha virt. eigenvalues --    0.66791   0.67458   0.67749   0.68283   0.68570
 Alpha virt. eigenvalues --    0.68982   0.69240   0.69459   0.70232   0.70656
 Alpha virt. eigenvalues --    0.70839   0.71153   0.73286   0.73981   0.74465
 Alpha virt. eigenvalues --    0.75490   0.75736   0.76132   0.77103   0.79022
 Alpha virt. eigenvalues --    0.80504   0.84660   0.85221   0.87224   0.87657
 Alpha virt. eigenvalues --    0.88284   0.91327   0.91884   0.94663   0.95421
 Alpha virt. eigenvalues --    0.95637   0.96039   0.96238   0.97004   0.97501
 Alpha virt. eigenvalues --    0.98686   1.00981   1.01387   1.02142   1.03484
 Alpha virt. eigenvalues --    1.04876   1.05071   1.07014   1.09443   1.10713
 Alpha virt. eigenvalues --    1.11428   1.12483   1.14485   1.15315   1.16953
 Alpha virt. eigenvalues --    1.17271   1.20163   1.22943   1.24930   1.25354
 Alpha virt. eigenvalues --    1.25694   1.25969   1.30495   1.31568   1.31744
 Alpha virt. eigenvalues --    1.34140   1.34882   1.36035   1.36549   1.38157
 Alpha virt. eigenvalues --    1.38429   1.40013   1.40842   1.41994   1.43970
 Alpha virt. eigenvalues --    1.45171   1.45349   1.46357   1.46913   1.47324
 Alpha virt. eigenvalues --    1.47930   1.48209   1.48439   1.49686   1.49954
 Alpha virt. eigenvalues --    1.50206   1.51002   1.52186   1.52325   1.52812
 Alpha virt. eigenvalues --    1.53314   1.53926   1.54594   1.54655   1.55536
 Alpha virt. eigenvalues --    1.56733   1.57003   1.57350   1.59188   1.59428
 Alpha virt. eigenvalues --    1.59510   1.59975   1.61024   1.62296   1.62713
 Alpha virt. eigenvalues --    1.62855   1.64399   1.65315   1.66385   1.66819
 Alpha virt. eigenvalues --    1.67205   1.67388   1.68460   1.69444   1.69832
 Alpha virt. eigenvalues --    1.70234   1.70899   1.71307   1.71747   1.72420
 Alpha virt. eigenvalues --    1.74312   1.74701   1.75315   1.75709   1.76300
 Alpha virt. eigenvalues --    1.77271   1.77937   1.78471   1.78707   1.79177
 Alpha virt. eigenvalues --    1.80080   1.81043   1.81339   1.83260   1.83665
 Alpha virt. eigenvalues --    1.84180   1.85110   1.85883   1.87194   1.87420
 Alpha virt. eigenvalues --    1.88908   1.89206   1.89459   1.90511   1.91783
 Alpha virt. eigenvalues --    1.92201   1.93379   1.93858   1.95760   1.96376
 Alpha virt. eigenvalues --    1.97650   1.98025   1.99579   2.02055   2.02825
 Alpha virt. eigenvalues --    2.04704   2.06301   2.06851   2.07329   2.07817
 Alpha virt. eigenvalues --    2.09138   2.10030   2.11490   2.11911   2.13506
 Alpha virt. eigenvalues --    2.15096   2.16052   2.16832   2.18592   2.21001
 Alpha virt. eigenvalues --    2.21385   2.21974   2.23728   2.24082   2.24412
 Alpha virt. eigenvalues --    2.24489   2.25991   2.27133   2.29673   2.30567
 Alpha virt. eigenvalues --    2.33019   2.34910   2.36065   2.36901   2.37908
 Alpha virt. eigenvalues --    2.41142   2.41492   2.42196   2.42657   2.43397
 Alpha virt. eigenvalues --    2.46395   2.46756   2.47424   2.48733   2.49088
 Alpha virt. eigenvalues --    2.49697   2.49787   2.50779   2.51971   2.52871
 Alpha virt. eigenvalues --    2.53469   2.54678   2.54881   2.56400   2.56532
 Alpha virt. eigenvalues --    2.57188   2.57385   2.57813   2.58526   2.59080
 Alpha virt. eigenvalues --    2.59322   2.59864   2.61139   2.61647   2.62125
 Alpha virt. eigenvalues --    2.63040   2.65523   2.65670   2.65969   2.67928
 Alpha virt. eigenvalues --    2.68316   2.68485   2.69670   2.69814   2.70366
 Alpha virt. eigenvalues --    2.70604   2.75005   2.75503   2.77345   2.77377
 Alpha virt. eigenvalues --    2.78638   2.79146   2.79371   2.80158   2.82128
 Alpha virt. eigenvalues --    2.84841   2.84913   2.86672   2.87676   2.88336
 Alpha virt. eigenvalues --    2.89345   2.90133   2.91209   2.91621   2.94060
 Alpha virt. eigenvalues --    2.94129   2.94834   2.96051   2.99129   2.99894
 Alpha virt. eigenvalues --    3.02339   3.02822   3.05858   3.06442   3.07276
 Alpha virt. eigenvalues --    3.10921   3.12389   3.16094   3.17365   3.19684
 Alpha virt. eigenvalues --    3.20810   3.22831   3.23262   3.23447   3.23793
 Alpha virt. eigenvalues --    3.25285   3.26352   3.30526   3.32290   3.33890
 Alpha virt. eigenvalues --    3.38577   3.40241   3.41134   3.41697   3.51921
 Alpha virt. eigenvalues --    3.52798   3.55599   3.58778   3.60393   3.65483
 Alpha virt. eigenvalues --    3.68040   3.71341   3.78135   3.79747   3.80669
 Alpha virt. eigenvalues --    3.81777   3.82097   3.82845   3.83164   3.83831
 Alpha virt. eigenvalues --    3.85132   3.86442   3.86908   3.87324   3.89678
 Alpha virt. eigenvalues --    3.90303   3.92327   3.94167   3.96261   3.99588
 Alpha virt. eigenvalues --    4.02560   4.12065   4.15595   4.18551   4.23098
 Alpha virt. eigenvalues --    4.23949   4.26689   4.33171   4.36871   4.38089
 Alpha virt. eigenvalues --    4.39405   4.41832   4.65996   4.89158   4.90947
 Alpha virt. eigenvalues --    4.92533   4.93796   5.02155   5.02986   5.03604
 Alpha virt. eigenvalues --    5.15232   5.17461   5.36369   5.39796   5.66624
 Alpha virt. eigenvalues --    5.74800   5.83510   5.86603  23.78170  23.82163
 Alpha virt. eigenvalues --   23.87917  23.88552  23.88815  23.94607  23.95742
 Alpha virt. eigenvalues --   23.96115  23.97435  23.99873  24.00807  24.03056
 Alpha virt. eigenvalues --   24.03545  24.08173  35.55399  35.65787  49.95349
 Alpha virt. eigenvalues --   50.00660  50.04836  50.10910
  Beta  occ. eigenvalues --  -19.66986 -19.62035 -19.61794 -19.61100 -14.82866
  Beta  occ. eigenvalues --  -14.73035 -10.67893 -10.59169 -10.59158 -10.59156
  Beta  occ. eigenvalues --  -10.58058 -10.55547 -10.53953 -10.53768 -10.53765
  Beta  occ. eigenvalues --  -10.53115 -10.52903 -10.52875 -10.52578 -10.52566
  Beta  occ. eigenvalues --   -1.24440  -1.20143  -1.14954  -1.14911  -1.03472
  Beta  occ. eigenvalues --   -0.96858  -0.92657  -0.86407  -0.85481  -0.84490
  Beta  occ. eigenvalues --   -0.80446  -0.78965  -0.78206  -0.77989  -0.74333
  Beta  occ. eigenvalues --   -0.68865  -0.68120  -0.66551  -0.66231  -0.61186
  Beta  occ. eigenvalues --   -0.60515  -0.59289  -0.58474  -0.57988  -0.56281
  Beta  occ. eigenvalues --   -0.55967  -0.53823  -0.52960  -0.52847  -0.52127
  Beta  occ. eigenvalues --   -0.51013  -0.49931  -0.49484  -0.48720  -0.47955
  Beta  occ. eigenvalues --   -0.47199  -0.46782  -0.46011  -0.45552  -0.44413
  Beta  occ. eigenvalues --   -0.43621  -0.43497  -0.43352  -0.43249  -0.42207
  Beta  occ. eigenvalues --   -0.41600  -0.41278  -0.40433  -0.40117  -0.39984
  Beta  occ. eigenvalues --   -0.39715  -0.39569  -0.37992  -0.36872  -0.36067
  Beta  occ. eigenvalues --   -0.34588  -0.32037  -0.30331
  Beta virt. eigenvalues --   -0.01203   0.04177   0.06490   0.07378   0.07952
  Beta virt. eigenvalues --    0.08574   0.09130   0.09649   0.10282   0.10858
  Beta virt. eigenvalues --    0.11243   0.11532   0.12966   0.13616   0.14418
  Beta virt. eigenvalues --    0.14662   0.14975   0.15595   0.16168   0.16372
  Beta virt. eigenvalues --    0.17104   0.17298   0.18022   0.18335   0.18582
  Beta virt. eigenvalues --    0.19141   0.19712   0.20411   0.21023   0.21092
  Beta virt. eigenvalues --    0.21321   0.22056   0.22219   0.23299   0.24333
  Beta virt. eigenvalues --    0.24900   0.25773   0.26446   0.27619   0.28901
  Beta virt. eigenvalues --    0.29217   0.29291   0.29917   0.30287   0.31444
  Beta virt. eigenvalues --    0.31753   0.32116   0.33094   0.34316   0.34799
  Beta virt. eigenvalues --    0.35605   0.36550   0.37121   0.37772   0.37918
  Beta virt. eigenvalues --    0.39317   0.41753   0.42236   0.42678   0.43148
  Beta virt. eigenvalues --    0.43958   0.44763   0.45081   0.45916   0.46038
  Beta virt. eigenvalues --    0.47772   0.48555   0.48778   0.49568   0.50383
  Beta virt. eigenvalues --    0.50959   0.52057   0.52254   0.52949   0.53857
  Beta virt. eigenvalues --    0.53926   0.54844   0.55145   0.57167   0.57787
  Beta virt. eigenvalues --    0.58198   0.59475   0.59776   0.60365   0.60991
  Beta virt. eigenvalues --    0.61463   0.61598   0.62258   0.62653   0.62695
  Beta virt. eigenvalues --    0.62951   0.63496   0.63869   0.64269   0.64665
  Beta virt. eigenvalues --    0.64747   0.65208   0.65493   0.65701   0.66111
  Beta virt. eigenvalues --    0.66419   0.66806   0.67490   0.67813   0.68358
  Beta virt. eigenvalues --    0.68632   0.69009   0.69322   0.69476   0.70308
  Beta virt. eigenvalues --    0.70704   0.70893   0.71262   0.73321   0.74176
  Beta virt. eigenvalues --    0.74533   0.75682   0.75846   0.76233   0.77121
  Beta virt. eigenvalues --    0.79085   0.80521   0.84736   0.86519   0.87229
  Beta virt. eigenvalues --    0.87711   0.88593   0.91331   0.93347   0.95315
  Beta virt. eigenvalues --    0.95523   0.95850   0.96054   0.96376   0.97024
  Beta virt. eigenvalues --    0.97664   0.98881   1.01113   1.01531   1.02263
  Beta virt. eigenvalues --    1.03936   1.04991   1.05143   1.07495   1.10221
  Beta virt. eigenvalues --    1.10827   1.12020   1.12823   1.14491   1.15367
  Beta virt. eigenvalues --    1.17004   1.17515   1.20298   1.22951   1.24969
  Beta virt. eigenvalues --    1.25466   1.25697   1.26053   1.30495   1.31568
  Beta virt. eigenvalues --    1.31856   1.34449   1.35228   1.36402   1.36550
  Beta virt. eigenvalues --    1.38284   1.38431   1.40015   1.40880   1.42226
  Beta virt. eigenvalues --    1.43981   1.45275   1.45416   1.46360   1.47039
  Beta virt. eigenvalues --    1.47397   1.47931   1.48272   1.48497   1.49742
  Beta virt. eigenvalues --    1.49967   1.50248   1.51027   1.52217   1.52339
  Beta virt. eigenvalues --    1.52879   1.53315   1.54045   1.54609   1.54683
  Beta virt. eigenvalues --    1.55652   1.56778   1.57021   1.57396   1.59252
  Beta virt. eigenvalues --    1.59442   1.59552   1.60086   1.61035   1.62422
  Beta virt. eigenvalues --    1.62713   1.62884   1.64523   1.65385   1.66437
  Beta virt. eigenvalues --    1.66826   1.67240   1.67389   1.68606   1.69510
  Beta virt. eigenvalues --    1.69834   1.70353   1.71012   1.71310   1.71889
  Beta virt. eigenvalues --    1.72506   1.74359   1.74702   1.75389   1.75711
  Beta virt. eigenvalues --    1.76341   1.77346   1.77978   1.78524   1.78893
  Beta virt. eigenvalues --    1.79272   1.80188   1.81188   1.81431   1.83261
  Beta virt. eigenvalues --    1.83679   1.84222   1.85364   1.85948   1.87217
  Beta virt. eigenvalues --    1.88068   1.89051   1.89266   1.89555   1.90704
  Beta virt. eigenvalues --    1.91825   1.92295   1.93453   1.93858   1.95762
  Beta virt. eigenvalues --    1.96418   1.97733   1.98027   1.99622   2.02112
  Beta virt. eigenvalues --    2.02932   2.04721   2.06327   2.06875   2.07560
  Beta virt. eigenvalues --    2.07832   2.10027   2.10337   2.11583   2.11917
  Beta virt. eigenvalues --    2.13561   2.15137   2.16056   2.16907   2.18652
  Beta virt. eigenvalues --    2.21019   2.21508   2.22193   2.23731   2.24304
  Beta virt. eigenvalues --    2.24488   2.24600   2.26127   2.27245   2.29675
  Beta virt. eigenvalues --    2.31121   2.33183   2.34912   2.36090   2.37377
  Beta virt. eigenvalues --    2.37973   2.41229   2.41581   2.42292   2.42725
  Beta virt. eigenvalues --    2.43405   2.46583   2.46893   2.47475   2.48808
  Beta virt. eigenvalues --    2.49139   2.49746   2.49861   2.50859   2.51986
  Beta virt. eigenvalues --    2.52992   2.53537   2.54803   2.54883   2.56474
  Beta virt. eigenvalues --    2.56628   2.57321   2.57464   2.57830   2.58587
  Beta virt. eigenvalues --    2.59148   2.59406   2.59978   2.61231   2.61700
  Beta virt. eigenvalues --    2.62545   2.63077   2.65564   2.65708   2.66062
  Beta virt. eigenvalues --    2.68004   2.68408   2.68511   2.69672   2.69892
  Beta virt. eigenvalues --    2.70381   2.70699   2.75203   2.75504   2.77363
  Beta virt. eigenvalues --    2.77453   2.78639   2.79336   2.79407   2.80483
  Beta virt. eigenvalues --    2.82129   2.84865   2.85138   2.86792   2.87986
  Beta virt. eigenvalues --    2.88341   2.89510   2.90432   2.91212   2.92177
  Beta virt. eigenvalues --    2.94110   2.94440   2.96106   2.96800   2.99326
  Beta virt. eigenvalues --    2.99898   3.02822   3.03155   3.05859   3.07243
  Beta virt. eigenvalues --    3.07747   3.11356   3.12389   3.16095   3.17476
  Beta virt. eigenvalues --    3.19685   3.20855   3.22836   3.23444   3.23792
  Beta virt. eigenvalues --    3.23872   3.25527   3.26407   3.30527   3.32353
  Beta virt. eigenvalues --    3.36047   3.38660   3.40401   3.41134   3.41761
  Beta virt. eigenvalues --    3.52543   3.52800   3.55777   3.58790   3.60398
  Beta virt. eigenvalues --    3.65487   3.68999   3.71361   3.78182   3.79747
  Beta virt. eigenvalues --    3.80840   3.81843   3.82307   3.82866   3.83198
[...]
 ,0.00073859,-0.00004733,-0.00000164,0.00017989,0.00002904,-0.00002261,
 0.00015853,0.00019986,0.00082693,0.00052827,0.00067363,0.00033431,-0.0
 0166715,-0.00221959,0.21471132,0.00000271,0.00001123,0.00000336,-0.000
 00008,-0.00000111,0.00000132,-0.00006699,-0.00011998,-0.00000037,0.000
 02286,0.00002436,-0.00011153,0.00004855,0.00003671,0.00005804,-0.00000
 480,0.00000575,0.00005099,-0.00000359,-0.00001238,-0.00001902,-0.00001
 246,-0.00000541,0.00002590,-0.00003203,-0.00003893,0.00000106,-0.00003
 013,-0.00008600,0.00008000,-0.00008843,0.00015597,-0.00019732,0.000014
 27,0.00001804,0.00001062,-0.00002484,0.00004374,0.00001668,0.00000321,
 0.00000241,0.00000115,0.00000568,-0.00000509,-0.00002259,0.00000535,0.
 00000113,-0.00000506,0.00001392,0.00002438,-0.00001940,0.00004550,-0.0
 0000730,-0.00002935,0.00003604,0.00006738,-0.00004419,-0.00000377,0.00
 000696,0.00000467,0.00015146,-0.00011590,0.00013520,-0.00009323,-0.000
 02387,0.00003797,0.00004627,0.00003428,-0.00003599,0.00000437,0.000000
 54,0.00000237,-0.00000098,0.00000015,-0.00000094,-0.00000298,-0.000000
 05,0.00000271,0.00000843,0.00000250,-0.00000781,0.00000623,0.00000430,
 -0.00000342,0.00000049,-0.00000163,-0.00000026,-0.00001300,-0.00000648
 ,0.00001554,0.00017073,0.00030869,0.00016445,-0.00028765,0.00062207,0.
 00066787,0.02442838,-0.00854100,-0.00963224,0.00190925,0.00235294,-0.0
 0061701,0.00034374,0.00085096,-0.00013383,0.01034697,-0.00162055,-0.00
 912804,0.01957187,-0.05935297,-0.01883610,-0.00002884,-0.00097950,-0.0
 0063283,-0.00042241,-0.00046538,0.00020744,-0.00011306,0.00013886,0.00
 005577,-0.00020514,-0.00007621,-0.00019636,-0.00013436,0.00067993,0.00
 060952,-0.00053420,-0.00069995,-0.00188605,-0.03256950,0.06106101,0.00
 001822,-0.00000603,0.00001457,-0.00000287,-0.00000013,0.00000002,-0.00
 002065,0.00000052,-0.00002823,-0.00000868,0.00003987,-0.00007145,0.000
 30372,0.00002167,-0.00008467,0.00000365,0.00000980,-0.00002506,-0.0000
 1768,-0.00000208,0.00000241,0.00001761,0.00002250,-0.00002970,-0.00002
 209,0.00001638,-0.00003409,0.00002319,-0.00006821,0.00007054,0.0000231
 5,-0.00004086,0.00006725,0.00001490,-0.00001376,0.00001392,0.00001572,
 -0.00000157,0.00001683,0.00000411,-0.00000172,0.00000764,0.00000831,0.
 00000441,0.00001401,0.00000157,-0.00000501,0.00000448,-0.00000631,-0.0
 0001393,0.00000350,0.00006053,-0.00002303,-0.00001973,-0.00006661,0.00
 003406,-0.00012445,-0.00002139,0.00002217,0.00007148,-0.00005027,0.000
 03756,-0.00004515,0.00002994,0.00001456,-0.00000943,-0.00000898,-0.000
 01447,0.00000511,-0.00000098,0.00000110,-0.00000112,-0.00000458,0.0000
 0102,0.00000573,0.00000268,-0.00000414,-0.00000686,0.00000816,0.000003
 74,-0.00000618,0.00000619,0.00000569,-0.00000312,-0.00000372,-0.000004
 07,0.00000214,0.00000396,-0.00000083,-0.00000629,-0.00005070,-0.000171
 11,0.00003176,-0.00052376,-0.00009620,-0.00051863,-0.01512456,0.005603
 23,0.01093556,-0.00076748,-0.00117267,0.00066147,-0.00001823,0.0008894
 6,0.00070827,0.02127391,-0.00244961,-0.01990296,0.11939650,-0.01997011
 ,-0.14588610,0.00032555,-0.00017618,0.00005859,0.00031501,0.00014937,0
 .00004726,-0.00014757,-0.00005576,0.00010689,-0.00014038,-0.00049253,0
 .00023635,-0.00007730,0.00074410,0.00100858,-0.00214555,-0.00389303,-0
 .00354589,-0.12697620,0.02249520,0.15763212,0.00003352,-0.00003760,0.0
 0002209,-0.00000932,0.00000233,-0.00000463,-0.00005259,0.00020259,0.00
 004589,0.00008849,0.00004356,-0.00015645,-0.00000596,-0.00014729,-0.00
 003139,0.00000128,-0.00003862,-0.00002931,-0.00001682,0.00003820,0.000
 01405,0.00000656,-0.00000007,-0.00001337,-0.00002566,0.00004658,-0.000
 01271,0.00003236,-0.00001129,0.00002226,-0.00061787,-0.00017705,0.0002
 1925,0.00000552,-0.00001712,0.00000664,0.00005156,-0.00010284,-0.00001
 696,0.00000415,0.00000107,0.00000489,-0.00001301,0.00001518,-0.0000233
 5,0.00000230,-0.00000884,0.00000031,0.00000745,0.00000199,0.00000062,0
 .00000581,-0.00001042,-0.00000464,-0.00000603,-0.00000101,-0.00005028,
 -0.00000910,0.00000475,0.00001777,-0.00158671,0.00022871,-0.00028166,0
 .00013651,0.00003790,-0.00007546,0.00015242,-0.00000978,0.00002930,0.0
 0000070,-0.00000350,-0.00000534,-0.00000257,0.00000135,0.00000352,0.00
 000322,-0.00000632,-0.00000813,0.00000242,0.00000502,0.00000099,-0.000
 00713,0.00000133,0.00000616,-0.00000647,-0.00000076,0.00000331,0.00003
 257,0.00000907,-0.00003363,0.00029192,0.00016394,-0.00039969,0.0002360
 0,-0.00028423,-0.00008484,0.01076818,0.02420231,-0.00255195,-0.0019224
 9,0.00360588,-0.00255960,-0.00002971,0.00002082,-0.00288691,-0.0042015
 3,-0.00756128,0.00351143,-0.10918948,-0.11357427,0.02533659,-0.0001900
 7,0.00096773,0.00070012,0.00037640,0.00076921,0.00003812,0.00005610,-0
 .00066859,0.00035328,0.00004255,0.00029457,0.00003928,-0.00014844,0.00
 005347,-0.00010548,0.00068613,0.00071173,-0.00001952,-0.01038202,-0.02
 093288,0.00405388,0.11517136,-0.00001573,0.00003398,-0.00001053,0.0000
 0337,-0.00000503,0.00000296,-0.00004763,-0.00016178,0.00002846,-0.0000
 4109,-0.00007646,0.00003830,-0.00018169,0.00012070,0.00012122,-0.00000
 383,-0.00000667,0.00004951,0.00001694,-0.00003133,-0.00001703,-0.00001
 231,0.00000623,0.00002265,0.00000289,-0.00008261,-0.00003529,-0.000042
 98,0.00000402,0.00007670,-0.00037665,0.00025362,-0.00050740,0.00001793
 ,0.00003829,0.00000928,-0.00005504,0.00008046,0.00002185,-0.00000755,0
 .00000233,0.00000297,0.00001419,-0.00001091,0.00000443,-0.00000050,0.0
 0000756,-0.00000523,0.00000066,0.00000306,-0.00001162,0.00002227,0.000
 00077,-0.00001234,-0.00002275,0.00003573,0.00000987,0.00001103,-0.0000
 0620,-0.00001485,0.00007431,0.00003052,0.00021644,-0.00020208,-0.00010
 721,0.00008365,0.00016672,0.00001036,0.00001780,0.00000054,0.00000255,
 0.00000508,-0.00000186,-0.00000201,-0.00000291,-0.00000701,0.00000377,
 0.00001039,0.00000891,-0.00000082,-0.00000989,0.00000599,0.00000301,-0
 .00000574,0.00000604,-0.00000011,-0.00000096,-0.00003065,-0.00000744,0
 .00003361,-0.00057043,-0.00053449,0.00052683,-0.00033920,0.00005892,0.
 00053393,-0.00456928,-0.01946436,0.00220522,0.00151347,-0.00136451,0.0
 0197102,0.00032056,-0.00104433,-0.00082793,-0.00419606,-0.00822574,0.0
 0252518,-0.10513509,-0.24817074,0.04321279,0.00070493,-0.00024857,-0.0
 0115993,-0.00026751,-0.00075069,0.00010677,-0.00024420,-0.00051351,0.0
 0005031,-0.00021341,-0.00018530,0.00004349,-0.00020133,-0.00029430,-0.
 00046379,0.00032444,0.00046338,0.00026932,0.00122390,0.00515091,-0.000
 85329,0.11255786,0.27548309,-0.00000478,0.00000046,-0.00000589,0.00000
 162,-0.00000022,-0.00000019,0.00008481,0.00010090,-0.00002127,-0.00005
 494,-0.00006128,0.00015147,-0.00027865,0.00007313,0.00009081,-0.000017
 44,0.00000099,0.00000831,0.00000672,-0.00000117,0.00000337,0.00000768,
 0.00000705,-0.00000158,0.00000637,-0.00002788,-0.00002087,0.00001255,0
 .00002251,0.00001085,0.00012216,-0.00016080,0.00003461,0.00000246,0.00
 001278,-0.00000409,0.00001429,-0.00003445,-0.00002463,-0.00000473,-0.0
 0000178,-0.00000259,-0.00000769,0.00000161,-0.00000217,-0.00000342,0.0
 0000265,-0.00000140,-0.00000387,-0.00000643,0.00000395,-0.00000516,0.0
 0000369,0.00000609,-0.00003512,-0.00001081,-0.00000999,-0.00000486,-0.
 00000446,0.00000676,-0.00017891,0.00006688,0.00022913,0.00000005,0.000
 02221,-0.00001606,0.00001175,0.00008038,-0.00007340,-0.00000203,-0.000
 00036,-0.00000047,0.,-0.00000091,-0.00000198,-0.00000301,0.00000246,0.
 00000493,-0.00000184,-0.00000067,-0.00000027,-0.00000684,-0.00000487,0
 .00000380,0.00000272,0.00000360,-0.00000094,0.00000533,0.00000446,-0.0
 0000832,0.00025443,0.00028642,-0.00003947,-0.00010854,0.00048847,-0.00
 015376,0.00312741,0.01496486,-0.00156525,-0.00229839,0.00002863,-0.002
 10384,-0.00153727,-0.00318341,-0.00414674,-0.01081562,-0.02441193,0.00
 736578,0.02555871,0.04348859,-0.05807596,0.00006292,-0.00066025,0.0001
 3859,0.00030020,0.00039919,0.00005393,-0.00012295,-0.00136958,0.000531
 00,-0.00012822,-0.00026321,0.00012877,-0.00027105,0.00052968,0.0000389
 7,0.00043194,0.00079525,0.00162185,0.01025908,0.01738880,-0.00292607,-
 0.02450776,-0.04863709,0.05924023,-0.00000628,-0.00001752,-0.00002133,
 -0.00000929,0.00000238,-0.00000421,0.00009766,0.00012900,0.00006824,-0
 .00021830,-0.00005356,0.00018958,-0.00012715,-0.00004241,-0.00001604,-
 0.00003982,-0.00004675,0.00007640,0.00003987,0.00004791,-0.00000208,-0
 .00002091,-0.00002355,0.00003192,0.00013548,0.00002334,-0.00000184,0.0
 0016698,0.00019386,-0.00018867,-0.00018371,-0.00003219,0.00000942,-0.0
 0004920,-0.00002825,-0.00003006,0.00000191,-0.00004916,-0.00003928,0.0
 0000835,0.00000210,-0.00002309,0.00018107,0.00007433,-0.00007663,-0.00
 000484,0.00000186,-0.00000585,0.00006482,-0.00000845,0.00001233,-0.000
 09501,0.00002564,0.00010797,-0.00003375,-0.00029292,-0.00002653,-0.000
 04233,0.00000509,0.00005204,-0.00000376,0.00004237,0.00011926,0.000038
 60,0.00001657,-0.00003054,0.00006556,0.00004948,-0.00004432,0.00000334
 ,-0.00001587,-0.00000624,0.00000387,-0.00000043,-0.00000573,0.00000481
 ,0.00000163,-0.00000269,-0.00002343,-0.00000817,0.00002129,-0.00001406
 ,-0.00001133,0.00000687,0.00000360,0.00000861,-0.00000553,0.00001491,0
 .00000603,-0.00001174,0.00155644,0.00294892,-0.00042547,0.00105485,0.0
 0265909,-0.00014407,-0.02842524,-0.00333460,-0.04571454,-0.00779823,-0
 .00734578,-0.01438559,-0.00221196,-0.00200677,-0.00189958,-0.00319149,
 0.00145982,-0.00179482,-0.00822751,-0.00380859,-0.02355066,-0.00033161
 ,-0.00412835,-0.00214747,-0.00028430,0.00076091,-0.00003676,-0.0004121
 9,-0.00007327,-0.00026692,-0.00027601,-0.00008652,-0.00044554,0.000181
 43,-0.00042662,-0.00101946,0.00022211,-0.00003775,-0.00032747,0.001557
 36,-0.00155876,0.00024147,0.00017480,-0.00018113,0.00010613,0.04653882
 ,0.00000188,-0.00000603,0.00000495,-0.00000110,0.00000101,0.00000075,0
 .00002719,0.00006330,0.00000043,-0.00004332,-0.00001896,0.00004802,-0.
 00006911,-0.00000678,0.00002070,-0.00000538,-0.00001499,-0.00000283,-0
 .00000072,0.00000936,-0.00000268,0.00000640,0.00000379,-0.00000147,0.0
 0000218,-0.00002362,-0.00002502,-0.00001825,0.00002839,0.00004484,-0.0
 0007687,-0.00004486,-0.00000653,0.00001005,0.00000826,0.00000288,0.000
 01051,-0.00002628,-0.00001087,-0.00000035,0.00000099,-0.00000332,0.000
 02616,0.00000929,-0.00000435,-0.00000203,-0.00000097,0.00000043,-0.000
 02160,0.00000357,0.00000018,-0.00000069,0.00000022,-0.00000631,-0.0000
 4059,-0.00003189,0.00006460,0.00000704,-0.00000526,-0.00001675,-0.0000
 1552,0.00005039,0.00003650,0.00001915,0.00001105,-0.00001392,0.0000365
 0,0.00002231,-0.00002440,0.00000034,-0.00000337,-0.00000023,-0.0000001
 2,-0.00000015,-0.00000030,-0.00000185,0.00000021,0.00000197,0.00000135
 ,0.00000083,-0.00000261,-0.00000434,-0.00000213,0.00000243,-0.00000024
 ,0.00000136,-0.00000019,0.00000727,0.00000224,-0.00000717,0.00048233,0
 .00134112,-0.00004355,0.00130379,0.00134525,0.00146167,-0.01336255,-0.
 07493653,-0.06938245,-0.00714803,-0.00746271,-0.03356433,-0.00193791,-
 0.00440884,-0.00007924,0.00377791,-0.00408562,0.00203076,0.00465105,0.
 00749824,0.02585167,-0.00152118,-0.00260300,-0.00248140,-0.00034404,-0
 .00145220,-0.00022602,-0.00055700,0.00014201,-0.00053236,-0.00051689,-
 0.00005374,-0.00082115,0.00059866,0.00107500,0.00115208,-0.00006978,-0
 .00012821,-0.00020206,0.00008290,0.00059029,-0.00058624,-0.00045815,-0
 .00048065,0.00005756,0.01520136,0.08361906,-0.00001067,0.00002103,-0.0
 0000371,0.00000289,-0.00000446,0.00000166,0.00000542,-0.00007499,-0.00
 003430,0.00001206,-0.00000167,-0.00000149,0.00004213,0.00002562,0.0000
 1405,0.00001428,0.00002192,-0.00002254,0.00000172,-0.00002872,0.000001
 50,0.00000424,0.00000892,-0.00000892,-0.00000588,-0.00002099,-0.000019
 00,-0.00003159,-0.00000717,0.00006398,0.00012850,0.00005237,-0.0000914
 1,0.00001157,0.00000972,0.00000594,-0.00001426,0.00004515,0.00001971,-
 0.00001001,-0.00000210,0.00000865,-0.00006591,-0.00003763,0.00002452,-
 0.00000163,0.00000187,0.00000386,-0.00002001,-0.00001776,-0.00000662,0
 .00002261,-0.00000289,-0.00002190,-0.00001893,0.00002013,-0.00001145,0
 .00000456,-0.00000105,-0.00000236,0.00017337,0.00013271,-0.00011361,-0
 .00005487,-0.00003104,0.00003205,-0.00004640,-0.00003475,0.00003581,-0
 .00000438,0.00000612,0.00000407,-0.00000112,-0.00000088,0.00000152,-0.
 00000211,0.00000081,0.00000276,0.00000457,-0.00000002,-0.00000562,0.00
 000628,0.00000188,-0.00000470,0.00000079,-0.00000323,0.00000197,-0.000
 01353,-0.00000408,0.00001371,-0.00003256,-0.00088343,-0.00022958,0.000
 47600,0.00141699,-0.00096972,-0.09966426,-0.07832718,-0.40368145,0.003
 67380,0.00051493,-0.00091329,0.00107286,0.00106170,0.00013696,-0.00229
 217,0.00143770,-0.00021575,0.00379645,-0.00377602,-0.01025993,0.002006
 95,0.00234486,0.00042895,-0.00076458,-0.00057743,-0.00033594,-0.000135
 27,-0.00004539,-0.00005645,0.00018094,-0.00012001,0.00020658,-0.000157
 07,-0.00038680,-0.00044017,0.00011801,0.00007355,0.00030816,0.00052513
 ,-0.00051112,0.00157637,-0.00054834,0.00039690,-0.00047843,0.09156070,
 0.07719843,0.41500455,0.00000506,0.00000434,0.00000171,-0.00000371,-0.
 00000272,-0.00000125,-0.00000476,-0.00000195,-0.00000061,0.00000322,0.
 00000404,-0.00000923,0.00001793,0.00000378,-0.00000426,0.00000093,0.00
 000098,0.00000066,-0.00000073,-0.00000233,-0.00000048,0.00000021,0.000
 00218,0.00000349,-0.00000576,-0.00000309,-0.00000840,-0.00000497,0.000
 00245,0.00001793,0.00000156,0.00000081,0.00000322,0.00000576,0.0000032
 3,0.00000178,-0.00000028,0.00000216,0.00000123,0.00000003,-0.00000024,
 0.00000056,-0.00000226,-0.00000162,-0.00000190,-0.00000004,-0.00000089
 ,-0.00000152,0.00000060,-0.00000123,-0.00000317,0.00000455,-0.00000214
 ,-0.00000009,-0.00001323,0.00001279,-0.00000839,0.00000447,0.00000032,
 -0.00000346,-0.00000021,-0.00000078,-0.00000144,0.00000019,0.00000057,
 -0.00000002,0.,-0.00000092,0.00000049,0.00000043,0.00000098,-0.0000006
 9,-0.00000103,-0.00000060,0.00000036,-0.00000100,-0.00000049,0.0000007
 1,0.00000213,0.00000015,-0.00000163,0.00000045,-0.00000073,-0.00000089
 ,0.00000066,-0.00000073,0.00000016,0.00000075,-0.00000091,-0.00000050,
 -0.13854034,-0.05546318,0.19676360,-0.00143316,0.00741358,-0.00159404,
 0.00031785,-0.00000686,0.00056314,0.00258547,-0.00378728,-0.00113889,-
 0.00001506,0.00070845,0.00061231,0.00009564,-0.00018182,-0.00018431,-0
 .00013907,-0.00012159,0.00003898,-0.01255135,-0.01296114,0.02017232,0.
 00039245,0.00018593,-0.00083243,0.00005322,-0.00010623,0.00008044,0.00
 023994,-0.00006123,0.00022495,-0.00000999,0.00003704,-0.00000409,0.000
 01295,0.00008921,-0.00001930,0.00002065,-0.00002218,0.00005462,0.00005
 267,-0.00002994,0.00002378,-0.00008628,-0.00003640,0.00004974,0.148993
 48,0.00000243,0.00000146,0.00000141,-0.00000113,-0.00000084,-0.0000002
 6,0.00000121,-0.00000214,-0.00000392,-0.00000910,-0.00000325,0.0000094
 9,0.00000779,0.00000447,-0.00000150,0.00000043,0.00000053,-0.00000144,
 -0.00000119,-0.00000247,-0.00000135,-0.00000259,0.00000271,0.00000335,
 -0.00000290,-0.00000699,-0.00001006,-0.00000703,0.00001753,0.00002211,
 0.00000618,-0.00000432,-0.00000704,0.00000361,0.00000256,0.00000371,-0
 .00000026,0.00000239,0.00000154,-0.00000046,-0.00000005,0.00000066,-0.
 00000185,-0.00000086,0.00000238,0.00000052,0.00000023,-0.00000085,-0.0
 0000314,-0.00000187,-0.00000020,0.00000330,-0.00000153,-0.00000322,-0.
 00001434,-0.00003288,0.00000135,0.00000210,-0.00000033,-0.00000051,0.0
 0000311,0.00000791,0.00000666,-0.00000277,-0.00000147,0.00000207,-0.00
 000319,-0.00000220,0.00000236,0.00000027,0.00000063,0.00000004,-0.0000
 0037,-0.00000072,0.00000019,-0.00000066,0.00000022,0.00000025,0.000001
 76,0.00000037,-0.00000186,0.00000046,0.00000023,-0.00000042,0.00000011
 ,-0.00000017,0.00000012,-0.00000049,-0.00000048,0.00000037,-0.03623630
 ,-0.05219842,0.03728251,0.00617969,0.00597230,-0.00123767,-0.00131737,
 -0.00076053,0.00092175,-0.00181895,-0.00419036,-0.00341208,0.00019344,
 0.00010336,-0.00035274,0.00000658,-0.00003198,-0.00009774,-0.00026881,
 0.00015724,-0.00003094,-0.03116702,-0.01620336,0.04447057,-0.00022989,
 0.00039708,0.00018500,0.00001240,0.00002034,-0.00003478,0.00018620,-0.
 00004827,0.00016998,0.00000012,0.00004013,-0.00000158,0.00000239,0.000
 04138,-0.00001900,0.00012627,-0.00003581,0.00000017,0.00006478,-0.0000
 1752,0.00000834,-0.00004157,-0.00003076,0.00010751,0.06432622,0.066806
 51,-0.00000564,-0.00000603,-0.00000523,0.00000537,0.00000477,0.0000030
 2,0.00000504,0.00000095,0.00000011,-0.00000233,-0.00000370,0.00000532,
 -0.00001030,-0.00000165,0.00000129,-0.00000229,-0.00000139,0.00000085,
 -0.00000045,0.00000221,0.00000199,-0.00000019,-0.00000029,-0.00000701,
 0.00000703,0.00000002,0.00000595,0.00000915,-0.00000402,-0.00001113,-0
 .00000159,-0.00000264,-0.00000259,-0.00000449,-0.00000191,-0.00000069,
 0.00000012,-0.00000291,-0.00000098,0.00000026,0.00000054,-0.00000015,0
 .00000108,0.00000061,0.00000178,0.00000005,0.00000076,0.00000248,0.000
 00222,0.00000074,0.00000273,-0.00000450,0.00000159,0.00000434,-0.00000
 385,0.00000599,-0.00000172,-0.00000387,0.00000059,0.00000158,0.0000014
 0,0.00000384,0.00000370,0.00000004,-0.00000071,0.00000027,-0.00000028,
 0.00000165,-0.00000155,0.00000034,-0.00000061,0.00000004,0.00000112,0.
 00000155,-0.00000129,0.00000138,0.00000008,-0.00000102,-0.00000166,0.,
 0.00000095,-0.00000013,0.00000144,0.00000130,-0.00000113,0.00000116,-0
 .00000065,-0.00000097,0.00000093,0.00000075,0.21456752,0.07561932,-0.3
 7396406,-0.00258552,-0.00373520,-0.00406269,-0.00008469,-0.00052999,0.
 00037779,0.00009684,-0.00084740,0.00249112,-0.00007256,-0.00003817,0.0
 0031937,0.00003469,-0.00004823,0.00009770,-0.00001853,0.00011114,-0.00
 004294,0.00287182,0.00800929,0.00536336,0.00007950,-0.00049779,-0.0001
 9460,-0.00004479,-0.00002395,0.00013427,-0.00010549,-0.00007984,-0.000
 00080,0.00000201,-0.00002404,0.00000931,0.00000048,-0.00001397,0.00000
 657,-0.00001585,0.00003421,-0.00002764,-0.00001837,-0.00002112,0.00001
 241,0.00009717,0.00006693,0.00003100,-0.21479519,-0.07798474,0.3694453
 6\\0.00000086,0.00000456,0.00000586,-0.00000107,0.00000685,0.00000584,
 -0.00001094,0.00000433,0.00000287,0.00000280,-0.00000836,0.00000459,0.
 ,0.00000385,-0.00000205,-0.00000231,0.00000415,0.00000293,-0.00000190,
 0.00000500,0.00000246,0.00000418,0.00000077,0.00000428,0.00000259,0.00
 000734,0.00000280,0.00000236,0.00000228,-0.00000075,-0.00000462,0.0000
 0311,0.00000151,0.00000651,0.00000239,0.00000080,0.00000170,0.00000632
 ,0.00000306,-0.00000291,0.00000481,0.00000366,-0.00000288,0.00000128,0
 .00000194,0.00000441,0.00000375,0.00000383,0.00000112,0.00000277,0.000
 00095,0.00000680,-0.00000079,-0.00000074,0.00000376,0.00000007,-0.0000
 0209,0.00000521,-0.00000288,0.00000144,-0.00000171,-0.00000337,-0.0000
 0194,-0.00000519,0.00000227,0.00000153,-0.00000313,0.00000024,0.000000
 96,0.00000194,0.00000523,0.00000385,0.00000406,0.00000319,0.00000115,0
 .00000661,0.00000305,0.00000260,0.00000236,0.00000386,0.00000300,-0.00
 000354,0.00000440,0.00000334,-0.00000267,0.00000324,0.00000251,-0.0000
 0085,0.00000409,0.00000574,0.00000139,-0.00000812,-0.00000344,-0.00000
 330,-0.00000560,-0.00000274,-0.00000457,-0.00000657,-0.00000165,0.0000
 1052,0.00000254,0.00000194,-0.00000600,-0.00000105,-0.00000594,-0.0000
 0280,-0.00000130,-0.00000266,-0.00000979,-0.00001105,0.00000435,-0.000
 00362,-0.00000188,-0.00000687,0.00000170,-0.00000300,-0.00000187,0.000
 00379,-0.00000335,-0.00000315,0.00000341,-0.00000791,-0.00000503,-0.00
 000081,-0.00000761,-0.00000749,0.00000350,-0.00000254,-0.00001336,-0.0
 0000178,-0.00000576,-0.00000562,-0.00000489,-0.00000398,-0.00000289,0.
 00000022,-0.00000399,-0.00000307,-0.00000052,-0.00000666,-0.00000642\\
 \@


 There are more things in heaven and earth, Horatio,
 than are dreamt of in your philosophy.
                   -- Hamlet, Act I, Scene 5
 Job cpu time:       1 days  1 hours  3 minutes 45.6 seconds.
 Elapsed time:       0 days  1 hours 34 minutes 19.6 seconds.
 File lengths (MBytes):  RWF=   2299 Int=      0 D2E=      0 Chk=     45 Scr=      1
 Normal termination of Gaussian 16 at Tue May  4 01:05:43 2021.
