 Entering Gaussian System, Link 0=g16
 Input=Tem_Prop_CA-H.gjf
 Output=Tem_Prop_CA-H.log
 Initial command:
 /data/home/xiaohe/soft/g16/l1.exe "/tmp/Gau-126633.inp" -scrdir="/tmp/"
 Entering Link 1 = /data/home/xiaohe/soft/g16/l1.exe PID=    126634.
  
 Copyright (c) 1988,1990,1992,1993,1995,1998,2003,2009,2016,
            Gaussian, Inc.  All Rights Reserved.
  
 This is part of the Gaussian(R) 16 program.  It is based on
 the Gaussian(R) 09 system (copyright 2009, Gaussian, Inc.),
 the Gaussian(R) 03 system (copyright 2003, Gaussian, Inc.),
 the Gaussian(R) 98 system (copyright 1998, Gaussian, Inc.),
 the Gaussian(R) 94 system (copyright 1995, Gaussian, Inc.),
 the Gaussian 92(TM) system (copyright 1992, Gaussian, Inc.),
 the Gaussian 90(TM) system (copyright 1990, Gaussian, Inc.),
 the Gaussian 88(TM) system (copyright 1988, Gaussian, Inc.),
 the Gaussian 86(TM) system (copyright 1986, Carnegie Mellon
 University), and the Gaussian 82(TM) system (copyright 1983,
 Carnegie Mellon University). Gaussian is a federally registered
 trademark of Gaussian, Inc.
  
 This software contains proprietary and confidential information,
 including trade secrets, belonging to Gaussian, Inc.
  
 This software is provided under written license and may be
 used, copied, transmitted, or stored only in accord with that
 written license.
  
 The following legend is applicable only to US Government
 contracts under FAR:
  
                    RESTRICTED RIGHTS LEGEND
  
 Use, reproduction and disclosure by the US Government is
 subject to restrictions as set forth in subparagraphs (a)
 and (c) of the Commercial Computer Software - Restricted
 Rights clause in FAR 52.227-19.
  
 Gaussian, Inc.
 340 Quinnipiac St., Bldg. 40, Wallingford CT 06492
  
  
 ---------------------------------------------------------------
 Warning -- This program may not be used in any manner that
 competes with the business of Gaussian, Inc. or will provide
 assistance to any competitor of Gaussian, Inc.  The licensee
 of this program is prohibited from giving any competitor of
 Gaussian, Inc. access to this program.  By using this program,
 the user acknowledges that Gaussian, Inc. is engaged in the
 business of creating and licensing software in the field of
 computational chemistry and represents and warrants to the
 licensee that it is not a competitor of Gaussian, Inc. and that
 it will not use this program in any manner prohibited above.
 ---------------------------------------------------------------
  

 Cite this work as:
 Gaussian 16, Revision A.03,
 M. J. Frisch, G. W. Trucks, H. B. Schlegel, G. E. Scuseria, 
 M. A. Robb, J. R. Cheeseman, G. Scalmani, V. Barone, 
 G. A. Petersson, H. Nakatsuji, X. Li, M. Caricato, A. V. Marenich, 
 J. Bloino, B. G. Janesko, R. Gomperts, B. Mennucci, H. P. Hratchian, 
 J. V. Ortiz, A. F. Izmaylov, J. L. Sonnenberg, D. Williams-Young, 
 F. Ding, F. Lipparini, F. Egidi, J. Goings, B. Peng, A. Petrone, 
 T. Henderson, D. Ranasinghe, V. G. Zakrzewski, J. Gao, N. Rega, 
 G. Zheng, W. Liang, M. Hada, M. Ehara, K. Toyota, R. Fukuda, 
 J. Hasegawa, M. Ishida, T. Nakajima, Y. Honda, O. Kitao, H. Nakai, 
 T. Vreven, K. Throssell, J. A. Montgomery, Jr., J. E. Peralta, 
 F. Ogliaro, M. J. Bearpark, J. J. Heyd, E. N. Brothers, K. N. Kudin, 
 V. N. Staroverov, T. A. Keith, R. Kobayashi, J. Normand, 
 K. Raghavachari, A. P. Rendell, J. C. Burant, S. S. Iyengar, 
 J. Tomasi, M. Cossi, J. M. Millam, M. Klene, C. Adamo, R. Cammi, 
 J. W. Ochterski, R. L. Martin, K. Morokuma, O. Farkas, 
 J. B. Foresman, and D. J. Fox, Gaussian, Inc., Wallingford CT, 2016.
 
 ******************************************
 Gaussian 16:  ES64L-G16RevA.03 25-Dec-2016
                25-Dec-2020 
 ******************************************
 %mem=2GB
 %nprocshared=40
 Will use up to   40 processors via shared memory.
 %chk=Tem_Prop_CA-H.chk
 -----------------------------------------------------
 # opt freq m062x/6-311g(d,p) scrf=(solvent=water,pcm)
 -----------------------------------------------------
 1/18=20,19=15,26=3,38=1/1,3;
 2/9=110,12=2,17=6,18=5,40=1/2;
 3/5=4,6=6,7=101,11=2,25=1,30=1,70=2201,71=1,72=1,74=-55/1,2,3;
 4//1;
 5/5=2,38=5,53=1/2;
 6/7=2,8=2,9=2,10=2,28=1/1;
 7//1,2,3,16;
 1/18=20,19=15,26=3/3(2);
 2/9=110/2;
 99//99;
 2/9=110/2;
 3/5=4,6=6,7=101,11=2,25=1,30=1,70=2205,71=1,72=1,74=-55/1,2,3;
 4/5=5,16=3,69=1/1;
 5/5=2,38=5,53=1/2;
 7//1,2,3,16;
 1/18=20,19=15,26=3/3(-5);
 2/9=110/2;
 6/7=2,8=2,9=2,10=2,19=2,28=1/1;
 99/9=1/99;
 -------------------
 Title Card Required
 -------------------
 Symbolic Z-matrix:
 Charge =  0 Multiplicity = 2
 O                    0     4.81305  -0.58479  -1.28199  L 
 H                    0     5.02745  -1.52107  -1.3341   L 
 C                    0     1.78356  -0.91603   0.98719  L 
 N                    0     1.28329   0.46665   0.71924  L 
 O                    0     0.18184   0.77443   1.27574  L    H        43    0.        0.        0.        0. 
 C                    0     3.22642  -1.0582    0.49249  L 
 C                    0     3.45232  -0.46656  -0.89006  L 
 C                    0     3.13994   1.0153   -0.83238  L 
 C                    0     1.68951   1.31466  -0.44307  L 
 C                    0     1.57654   2.77553  -0.0049   L 
 C                    0     1.74464  -1.13192   2.50064  L 
 C                    0     0.7283    1.06633  -1.61425  L 
 C                    0     0.8537   -1.93226   0.30984  L 
 H                    0     3.48536  -2.12145   0.50359  L 
 H                    0     3.90605  -0.54695   1.18262  L 
 H                    0     3.34078   1.48006  -1.8009   L 
 H                    0     3.81979   1.46697  -0.10175  L 
 H                    0     1.93835   3.41754  -0.81093  L 
 H                    0     2.18333   2.9549    0.88501  L 
 H                    0     0.54092   3.0326    0.21424  L 
 H                    0     2.33071  -0.36409   3.00967  L 
 H                    0     2.17174  -2.11002   2.7321   L 
 H                    0     0.72009  -1.09692   2.86902  L 
 H                    0     2.81188  -0.96304  -1.62971  L 
 H                    0    -0.29691   1.28683  -1.30795  L 
 H                    0     0.99309   1.73214  -2.43908  L 
 H                    0     0.77792   0.03968  -1.98122  L 
 H                    0     1.18191  -2.9434    0.56102  L 
 H                    0    -0.16665  -1.80301   0.67503  L 
 H                    0     0.85067  -1.83672  -0.77735  L 
 O                    0    -2.31205  -0.89474   2.88447  H 
 O                    0    -4.07016   0.12694   1.95362  H 
 N                    0    -2.67827   2.54993   1.74223  H 
 C                    0    -2.06658   1.4027    2.41173  H 
 C                    0    -1.81112   1.84405   3.87954  H 
 C                    0    -2.09646   3.34961   3.85047  H 
 C                    0    -3.18467   3.45078   2.78826  H 
 C                    0    -2.94298   0.1722    2.37509  H 
 H                    0    -1.12005   1.13821   1.93351  H 
 H                    0    -0.79431   1.60742   4.18749  H 
 H                    0    -2.50838   1.34193   4.5553   H 
 H                    0    -2.40916   3.73863   4.81954  H 
 H                    0    -1.20609   3.88662   3.51797  H 
 H                    0    -4.14468   3.11276   3.20395  H 
 H                    0    -3.31312   4.46038   2.39523  H 
 H                    0    -3.42493   2.23627   1.13059  H 
 H                    0    -2.91741  -1.64973   2.85406  H 
 
 Add virtual bond connecting atoms H39        and O5         Dist= 2.84D+00.

 GradGradGradGradGradGradGradGradGradGradGradGradGradGradGradGradGradGrad
 Berny optimization.
 Initialization pass.
                           ----------------------------
                           !    Initial Parameters    !
                           ! (Angstroms and Degrees)  !
 --------------------------                            --------------------------
 ! Name  Definition              Value          Derivative Info.                !
 --------------------------------------------------------------------------------
 ! R1    R(1,2)                  0.9619         estimate D2E/DX2                !
 ! R2    R(1,7)                  1.421          estimate D2E/DX2                !
 ! R3    R(3,4)                  1.4946         estimate D2E/DX2                !
 ! R4    R(3,6)                  1.5319         estimate D2E/DX2                !
 ! R5    R(3,11)                 1.5293         estimate D2E/DX2                !
 ! R6    R(3,13)                 1.535          estimate D2E/DX2                !
 ! R7    R(4,5)                  1.2719         estimate D2E/DX2                !
 ! R8    R(4,9)                  1.495          estimate D2E/DX2                !
 ! R9    R(5,39)                 1.5033         estimate D2E/DX2                !
 ! R10   R(6,7)                  1.5207         estimate D2E/DX2                !
 ! R11   R(6,14)                 1.0944         estimate D2E/DX2                !
 ! R12   R(6,15)                 1.0952         estimate D2E/DX2                !
 ! R13   R(7,8)                  1.5155         estimate D2E/DX2                !
 ! R14   R(7,24)                 1.0971         estimate D2E/DX2                !
 ! R15   R(8,9)                  1.5313         estimate D2E/DX2                !
 ! R16   R(8,16)                 1.0929         estimate D2E/DX2                !
 ! R17   R(8,17)                 1.0954         estimate D2E/DX2                !
 ! R18   R(9,10)                 1.5293         estimate D2E/DX2                !
 ! R19   R(9,12)                 1.5353         estimate D2E/DX2                !
 ! R20   R(10,18)                1.0921         estimate D2E/DX2                !
 ! R21   R(10,19)                1.0919         estimate D2E/DX2                !
 ! R22   R(10,20)                1.0893         estimate D2E/DX2                !
 ! R23   R(11,21)                1.0919         estimate D2E/DX2                !
 ! R24   R(11,22)                1.0921         estimate D2E/DX2                !
 ! R25   R(11,23)                1.0893         estimate D2E/DX2                !
 ! R26   R(12,25)                1.0925         estimate D2E/DX2                !
 ! R27   R(12,26)                1.0926         estimate D2E/DX2                !
 ! R28   R(12,27)                1.0914         estimate D2E/DX2                !
 ! R29   R(13,28)                1.0923         estimate D2E/DX2                !
 ! R30   R(13,29)                1.0914         estimate D2E/DX2                !
 ! R31   R(13,30)                1.0914         estimate D2E/DX2                !
 ! R32   R(31,38)                1.3401         estimate D2E/DX2                !
 ! R33   R(31,47)                0.9682         estimate D2E/DX2                !
 ! R34   R(32,38)                1.2043         estimate D2E/DX2                !
 ! R35   R(33,34)                1.4624         estimate D2E/DX2                !
 ! R36   R(33,37)                1.4704         estimate D2E/DX2                !
 ! R37   R(33,46)                1.0149         estimate D2E/DX2                !
 ! R38   R(34,35)                1.5539         estimate D2E/DX2                !
 ! R39   R(34,38)                1.5111         estimate D2E/DX2                !
 ! R40   R(34,39)                1.093          estimate D2E/DX2                !
 ! R41   R(35,36)                1.5326         estimate D2E/DX2                !
 ! R42   R(35,40)                1.0885         estimate D2E/DX2                !
 ! R43   R(35,41)                1.0931         estimate D2E/DX2                !
 ! R44   R(36,37)                1.5241         estimate D2E/DX2                !
 ! R45   R(36,42)                1.09           estimate D2E/DX2                !
 ! R46   R(36,43)                1.0917         estimate D2E/DX2                !
 ! R47   R(37,44)                1.0994         estimate D2E/DX2                !
 ! R48   R(37,45)                1.091          estimate D2E/DX2                !
 ! A1    A(2,1,7)              108.0206         estimate D2E/DX2                !
 ! A2    A(4,3,6)              110.0733         estimate D2E/DX2                !
 ! A3    A(4,3,11)             107.4281         estimate D2E/DX2                !
 ! A4    A(4,3,13)             109.3046         estimate D2E/DX2                !
 ! A5    A(6,3,11)             109.2963         estimate D2E/DX2                !
 ! A6    A(6,3,13)             111.507          estimate D2E/DX2                !
 ! A7    A(11,3,13)            109.1373         estimate D2E/DX2                !
 ! A8    A(3,4,5)              115.8043         estimate D2E/DX2                !
 ! A9    A(3,4,9)              124.9714         estimate D2E/DX2                !
 ! A10   A(5,4,9)              115.9907         estimate D2E/DX2                !
 ! A11   A(3,6,7)              113.4157         estimate D2E/DX2                !
 ! A12   A(3,6,14)             108.0437         estimate D2E/DX2                !
 ! A13   A(3,6,15)             109.7336         estimate D2E/DX2                !
 ! A14   A(7,6,14)             110.6137         estimate D2E/DX2                !
 ! A15   A(7,6,15)             107.4029         estimate D2E/DX2                !
 ! A16   A(14,6,15)            107.4754         estimate D2E/DX2                !
 ! A17   A(1,7,6)              111.1396         estimate D2E/DX2                !
 ! A18   A(1,7,8)              106.8122         estimate D2E/DX2                !
 ! A19   A(1,7,24)             109.5969         estimate D2E/DX2                !
 ! A20   A(6,7,8)              108.3721         estimate D2E/DX2                !
 ! A21   A(6,7,24)             110.4961         estimate D2E/DX2                !
 ! A22   A(8,7,24)             110.3527         estimate D2E/DX2                !
 ! A23   A(7,8,9)              113.3321         estimate D2E/DX2                !
 ! A24   A(7,8,16)             110.1328         estimate D2E/DX2                !
 ! A25   A(7,8,17)             107.4947         estimate D2E/DX2                !
 ! A26   A(9,8,16)             108.4354         estimate D2E/DX2                !
 ! A27   A(9,8,17)             109.7349         estimate D2E/DX2                !
 ! A28   A(16,8,17)            107.5587         estimate D2E/DX2                !
 ! A29   A(4,9,8)              110.1288         estimate D2E/DX2                !
 ! A30   A(4,9,10)             107.3978         estimate D2E/DX2                !
 ! A31   A(4,9,12)             109.3415         estimate D2E/DX2                !
 ! A32   A(8,9,10)             109.2409         estimate D2E/DX2                !
 ! A33   A(8,9,12)             111.5582         estimate D2E/DX2                !
 ! A34   A(10,9,12)            109.075          estimate D2E/DX2                !
 ! A35   A(9,10,18)            109.0025         estimate D2E/DX2                !
 ! A36   A(9,10,19)            110.4487         estimate D2E/DX2                !
 ! A37   A(9,10,20)            110.6885         estimate D2E/DX2                !
 ! A38   A(18,10,19)           108.7127         estimate D2E/DX2                !
 ! A39   A(18,10,20)           108.9472         estimate D2E/DX2                !
 ! A40   A(19,10,20)           109.0012         estimate D2E/DX2                !
 ! A41   A(3,11,21)            110.3922         estimate D2E/DX2                !
 ! A42   A(3,11,22)            109.0407         estimate D2E/DX2                !
 ! A43   A(3,11,23)            110.7361         estimate D2E/DX2                !
 ! A44   A(21,11,22)           108.7295         estimate D2E/DX2                !
 ! A45   A(21,11,23)           108.9409         estimate D2E/DX2                !
 ! A46   A(22,11,23)           108.962          estimate D2E/DX2                !
 ! A47   A(9,12,25)            109.9381         estimate D2E/DX2                !
 ! A48   A(9,12,26)            109.0008         estimate D2E/DX2                !
 ! A49   A(9,12,27)            112.3445         estimate D2E/DX2                !
 ! A50   A(25,12,26)           108.4271         estimate D2E/DX2                !
 ! A51   A(25,12,27)           109.0744         estimate D2E/DX2                !
 ! A52   A(26,12,27)           107.9612         estimate D2E/DX2                !
 ! A53   A(3,13,28)            109.229          estimate D2E/DX2                !
 ! A54   A(3,13,29)            109.8938         estimate D2E/DX2                !
 ! A55   A(3,13,30)            112.539          estimate D2E/DX2                !
 ! A56   A(28,13,29)           108.275          estimate D2E/DX2                !
 ! A57   A(28,13,30)           108.1155         estimate D2E/DX2                !
 ! A58   A(29,13,30)           108.6842         estimate D2E/DX2                !
 ! A59   A(38,31,47)           108.3319         estimate D2E/DX2                !
 ! A60   A(34,33,37)           107.3972         estimate D2E/DX2                !
 ! A61   A(34,33,46)           109.9499         estimate D2E/DX2                !
 ! A62   A(37,33,46)           111.3887         estimate D2E/DX2                !
 ! A63   A(33,34,35)           106.165          estimate D2E/DX2                !
 ! A64   A(33,34,38)           112.6508         estimate D2E/DX2                !
 ! A65   A(33,34,39)           110.5954         estimate D2E/DX2                !
 ! A66   A(35,34,38)           110.4587         estimate D2E/DX2                !
 ! A67   A(35,34,39)           109.8573         estimate D2E/DX2                !
 ! A68   A(38,34,39)           107.1335         estimate D2E/DX2                !
 ! A69   A(34,35,36)           103.326          estimate D2E/DX2                !
 ! A70   A(34,35,40)           111.0438         estimate D2E/DX2                !
 ! A71   A(34,35,41)           110.4028         estimate D2E/DX2                !
 ! A72   A(36,35,40)           113.1318         estimate D2E/DX2                !
 ! A73   A(36,35,41)           110.133          estimate D2E/DX2                !
 ! A74   A(40,35,41)           108.73           estimate D2E/DX2                !
 ! A75   A(35,36,37)           102.2023         estimate D2E/DX2                !
 ! A76   A(35,36,42)           112.7757         estimate D2E/DX2                !
 ! A77   A(35,36,43)           109.7044         estimate D2E/DX2                !
 ! A78   A(37,36,42)           113.0225         estimate D2E/DX2                !
 ! A79   A(37,36,43)           109.7202         estimate D2E/DX2                !
 ! A80   A(42,36,43)           109.2197         estimate D2E/DX2                !
 ! A81   A(33,37,36)           102.0773         estimate D2E/DX2                !
 ! A82   A(33,37,44)           112.4171         estimate D2E/DX2                !
 ! A83   A(33,37,45)           110.562          estimate D2E/DX2                !
 ! A84   A(36,37,44)           109.8497         estimate D2E/DX2                !
 ! A85   A(36,37,45)           113.3643         estimate D2E/DX2                !
 ! A86   A(44,37,45)           108.5374         estimate D2E/DX2                !
 ! A87   A(31,38,32)           122.9415         estimate D2E/DX2                !
 ! A88   A(31,38,34)           111.471          estimate D2E/DX2                !
 ! A89   A(32,38,34)           125.5867         estimate D2E/DX2                !
 ! A90   L(4,5,39,20,-1)       180.0            estimate D2E/DX2                !
 ! A91   L(5,39,34,31,-1)      180.0            estimate D2E/DX2                !
 ! A92   L(4,5,39,20,-2)       180.0            estimate D2E/DX2                !
 ! A93   L(5,39,34,31,-2)      180.0            estimate D2E/DX2                !
 ! D1    D(2,1,7,6)             62.6205         estimate D2E/DX2                !
 ! D2    D(2,1,7,8)           -179.3551         estimate D2E/DX2                !
 ! D3    D(2,1,7,24)           -59.8013         estimate D2E/DX2                !
 ! D4    D(6,3,4,5)           -168.9862         estimate D2E/DX2                !
 ! D5    D(6,3,4,9)             32.2304         estimate D2E/DX2                !
 ! D6    D(11,3,4,5)           -50.0742         estimate D2E/DX2                !
 ! D7    D(11,3,4,9)           151.1424         estimate D2E/DX2                !
 ! D8    D(13,3,4,5)            68.2225         estimate D2E/DX2                !
 ! D9    D(13,3,4,9)           -90.5609         estimate D2E/DX2                !
 ! D10   D(4,3,6,7)            -44.9881         estimate D2E/DX2                !
 ! D11   D(4,3,6,14)          -167.9843         estimate D2E/DX2                !
 ! D12   D(4,3,6,15)            75.1186         estimate D2E/DX2                !
 ! D13   D(11,3,6,7)          -162.7502         estimate D2E/DX2                !
 ! D14   D(11,3,6,14)           74.2536         estimate D2E/DX2                !
 ! D15   D(11,3,6,15)          -42.6435         estimate D2E/DX2                !
 ! D16   D(13,3,6,7)            76.4989         estimate D2E/DX2                !
 ! D17   D(13,3,6,14)          -46.4973         estimate D2E/DX2                !
 ! D18   D(13,3,6,15)         -163.3944         estimate D2E/DX2                !
 ! D19   D(4,3,11,21)          -56.6468         estimate D2E/DX2                !
 ! D20   D(4,3,11,22)         -176.0329         estimate D2E/DX2                !
 ! D21   D(4,3,11,23)           64.0849         estimate D2E/DX2                !
 ! D22   D(6,3,11,21)           62.7634         estimate D2E/DX2                !
 ! D23   D(6,3,11,22)          -56.6227         estimate D2E/DX2                !
 ! D24   D(6,3,11,23)         -176.5049         estimate D2E/DX2                !
 ! D25   D(13,3,11,21)        -175.0516         estimate D2E/DX2                !
 ! D26   D(13,3,11,22)          65.5622         estimate D2E/DX2                !
 ! D27   D(13,3,11,23)         -54.32           estimate D2E/DX2                !
 ! D28   D(4,3,13,28)         -176.2875         estimate D2E/DX2                !
 ! D29   D(4,3,13,29)          -57.641          estimate D2E/DX2                !
 ! D30   D(4,3,13,30)           63.6267         estimate D2E/DX2                !
 ! D31   D(6,3,13,28)           61.7802         estimate D2E/DX2                !
 ! D32   D(6,3,13,29)         -179.5732         estimate D2E/DX2                !
 ! D33   D(6,3,13,30)          -58.3056         estimate D2E/DX2                !
 ! D34   D(11,3,13,28)         -59.0637         estimate D2E/DX2                !
 ! D35   D(11,3,13,29)          59.5829         estimate D2E/DX2                !
 ! D36   D(11,3,13,30)        -179.1495         estimate D2E/DX2                !
 ! D37   D(3,4,34,33)         -160.5609         estimate D2E/DX2                !
 ! D38   D(3,4,34,35)           82.5716         estimate D2E/DX2                !
 ! D39   D(3,4,34,38)          -37.4432         estimate D2E/DX2                !
 ! D40   D(9,4,34,33)            0.1754         estimate D2E/DX2                !
 ! D41   D(9,4,34,35)         -116.6921         estimate D2E/DX2                !
 ! D42   D(9,4,34,38)          123.2931         estimate D2E/DX2                !
 ! D43   D(3,4,9,8)            -32.4083         estimate D2E/DX2                !
 ! D44   D(3,4,9,10)          -151.2669         estimate D2E/DX2                !
 ! D45   D(3,4,9,12)            90.5076         estimate D2E/DX2                !
 ! D46   D(5,4,9,8)            168.8435         estimate D2E/DX2                !
 ! D47   D(5,4,9,10)            49.9849         estimate D2E/DX2                !
 ! D48   D(5,4,9,12)           -68.2406         estimate D2E/DX2                !
 ! D49   D(3,6,7,1)            178.0593         estimate D2E/DX2                !
 ! D50   D(3,6,7,8)             60.983          estimate D2E/DX2                !
 ! D51   D(3,6,7,24)           -60.0406         estimate D2E/DX2                !
 ! D52   D(14,6,7,1)           -60.3715         estimate D2E/DX2                !
 ! D53   D(14,6,7,8)          -177.4478         estimate D2E/DX2                !
 ! D54   D(14,6,7,24)           61.5285         estimate D2E/DX2                !
 ! D55   D(15,6,7,1)            56.6373         estimate D2E/DX2                !
 ! D56   D(15,6,7,8)           -60.439          estimate D2E/DX2                !
 ! D57   D(15,6,7,24)          178.5373         estimate D2E/DX2                !
 ! D58   D(1,7,8,9)            179.037          estimate D2E/DX2                !
 ! D59   D(1,7,8,16)            57.373          estimate D2E/DX2                !
 ! D60   D(1,7,8,17)           -59.5279         estimate D2E/DX2                !
 ! D61   D(6,7,8,9)            -61.1396         estimate D2E/DX2                !
 ! D62   D(6,7,8,16)           177.1964         estimate D2E/DX2                !
 ! D63   D(6,7,8,17)            60.2954         estimate D2E/DX2                !
 ! D64   D(24,7,8,9)            59.9727         estimate D2E/DX2                !
 ! D65   D(24,7,8,16)          -61.6913         estimate D2E/DX2                !
 ! D66   D(24,7,8,17)         -178.5923         estimate D2E/DX2                !
 ! D67   D(7,8,9,4)             45.4038         estimate D2E/DX2                !
 ! D68   D(7,8,9,10)           163.1285         estimate D2E/DX2                !
 ! D69   D(7,8,9,12)           -76.2026         estimate D2E/DX2                !
 ! D70   D(16,8,9,4)           168.0132         estimate D2E/DX2                !
 ! D71   D(16,8,9,10)          -74.262          estimate D2E/DX2                !
 ! D72   D(16,8,9,12)           46.4069         estimate D2E/DX2                !
 ! D73   D(17,8,9,4)           -74.7654         estimate D2E/DX2                !
 ! D74   D(17,8,9,10)           42.9593         estimate D2E/DX2                !
 ! D75   D(17,8,9,12)          163.6283         estimate D2E/DX2                !
 ! D76   D(4,9,10,18)          175.8446         estimate D2E/DX2                !
 ! D77   D(4,9,10,19)           56.4685         estimate D2E/DX2                !
 ! D78   D(4,9,10,20)          -64.345          estimate D2E/DX2                !
 ! D79   D(8,9,10,18)           56.4164         estimate D2E/DX2                !
 ! D80   D(8,9,10,19)          -62.9597         estimate D2E/DX2                !
 ! D81   D(8,9,10,20)          176.2268         estimate D2E/DX2                !
 ! D82   D(12,9,10,18)         -65.7576         estimate D2E/DX2                !
 ! D83   D(12,9,10,19)         174.8663         estimate D2E/DX2                !
 ! D84   D(12,9,10,20)          54.0528         estimate D2E/DX2                !
 ! D85   D(4,9,12,25)           57.8951         estimate D2E/DX2                !
 ! D86   D(4,9,12,26)          176.6156         estimate D2E/DX2                !
 ! D87   D(4,9,12,27)          -63.7703         estimate D2E/DX2                !
 ! D88   D(8,9,12,25)          179.9563         estimate D2E/DX2                !
 ! D89   D(8,9,12,26)          -61.3231         estimate D2E/DX2                !
 ! D90   D(8,9,12,27)           58.291          estimate D2E/DX2                !
 ! D91   D(10,9,12,25)         -59.2777         estimate D2E/DX2                !
 ! D92   D(10,9,12,26)          59.4428         estimate D2E/DX2                !
 ! D93   D(10,9,12,27)         179.0569         estimate D2E/DX2                !
 ! D94   D(47,31,38,32)         -0.737          estimate D2E/DX2                !
 ! D95   D(47,31,38,34)        178.9593         estimate D2E/DX2                !
 ! D96   D(37,33,34,35)        -17.8082         estimate D2E/DX2                !
 ! D97   D(37,33,34,38)        103.2091         estimate D2E/DX2                !
 ! D98   D(37,33,34,39)       -136.9343         estimate D2E/DX2                !
 ! D99   D(46,33,34,35)       -139.1609         estimate D2E/DX2                !
 ! D100  D(46,33,34,38)        -18.1436         estimate D2E/DX2                !
 ! D101  D(46,33,34,39)        101.713          estimate D2E/DX2                !
 ! D102  D(34,33,37,36)         38.2915         estimate D2E/DX2                !
 ! D103  D(34,33,37,44)        -79.347          estimate D2E/DX2                !
 ! D104  D(34,33,37,45)        159.1826         estimate D2E/DX2                !
 ! D105  D(46,33,37,36)        158.7372         estimate D2E/DX2                !
 ! D106  D(46,33,37,44)         41.0987         estimate D2E/DX2                !
 ! D107  D(46,33,37,45)        -80.3717         estimate D2E/DX2                !
 ! D108  D(33,34,35,36)         -9.6539         estimate D2E/DX2                !
 ! D109  D(33,34,35,40)       -131.2346         estimate D2E/DX2                !
 ! D110  D(33,34,35,41)        108.089          estimate D2E/DX2                !
 ! D111  D(38,34,35,36)       -132.0723         estimate D2E/DX2                !
 ! D112  D(38,34,35,40)        106.3469         estimate D2E/DX2                !
 ! D113  D(38,34,35,41)        -14.3295         estimate D2E/DX2                !
 ! D114  D(39,34,35,36)        109.9555         estimate D2E/DX2                !
 ! D115  D(39,34,35,40)        -11.6252         estimate D2E/DX2                !
 ! D116  D(39,34,35,41)       -132.3016         estimate D2E/DX2                !
 ! D117  D(33,34,38,31)        174.2941         estimate D2E/DX2                !
 ! D118  D(33,34,38,32)         -6.0193         estimate D2E/DX2                !
 ! D119  D(35,34,38,31)        -67.1731         estimate D2E/DX2                !
 ! D120  D(35,34,38,32)        112.5135         estimate D2E/DX2                !
 ! D121  D(39,34,38,31)         52.4565         estimate D2E/DX2                !
 ! D122  D(39,34,38,32)       -127.8568         estimate D2E/DX2                !
 ! D123  D(34,35,36,37)         32.1086         estimate D2E/DX2                !
 ! D124  D(34,35,36,42)        153.7611         estimate D2E/DX2                !
 ! D125  D(34,35,36,43)        -84.2601         estimate D2E/DX2                !
 ! D126  D(40,35,36,37)        152.272          estimate D2E/DX2                !
 ! D127  D(40,35,36,42)        -86.0755         estimate D2E/DX2                !
 ! D128  D(40,35,36,43)         35.9033         estimate D2E/DX2                !
 ! D129  D(41,35,36,37)        -85.8229         estimate D2E/DX2                !
 ! D130  D(41,35,36,42)         35.8296         estimate D2E/DX2                !
 ! D131  D(41,35,36,43)        157.8084         estimate D2E/DX2                !
 ! D132  D(35,36,37,33)        -43.2051         estimate D2E/DX2                !
 ! D133  D(35,36,37,44)         76.2575         estimate D2E/DX2                !
 ! D134  D(35,36,37,45)       -162.1315         estimate D2E/DX2                !
 ! D135  D(42,36,37,33)       -164.6879         estimate D2E/DX2                !
 ! D136  D(42,36,37,44)        -45.2253         estimate D2E/DX2                !
 ! D137  D(42,36,37,45)         76.3857         estimate D2E/DX2                !
 ! D138  D(43,36,37,33)         73.1523         estimate D2E/DX2                !
 ! D139  D(43,36,37,44)       -167.3852         estimate D2E/DX2                !
 ! D140  D(43,36,37,45)        -45.7741         estimate D2E/DX2                !
 --------------------------------------------------------------------------------
 Trust Radius=3.00D-01 FncErr=1.00D-07 GrdErr=1.00D-06 EigMax=2.50D+02 EigMin=1.00D-04
 Number of steps in this run=    282 maximum allowed number of steps=    282.
 GradGradGradGradGradGradGradGradGradGradGradGradGradGradGradGradGradGrad

                          Input orientation:                          
 ---------------------------------------------------------------------
 Center     Atomic      Atomic             Coordinates (Angstroms)
 Number     Number       Type             X           Y           Z
 ---------------------------------------------------------------------
      1          8           0        4.813050   -0.584789   -1.281987
      2          1           0        5.027450   -1.521073   -1.334095
      3          6           0        1.783560   -0.916027    0.987190
      4          7           0        1.283285    0.466650    0.719241
      5          8           0        0.181836    0.774427    1.275740
      6          6           0        3.226423   -1.058200    0.492488
      7          6           0        3.452324   -0.466563   -0.890064
      8          6           0        3.139936    1.015305   -0.832376
      9          6           0        1.689511    1.314659   -0.443074
     10          6           0        1.576542    2.775530   -0.004903
     11          6           0        1.744644   -1.131924    2.500642
     12          6           0        0.728299    1.066334   -1.614246
     13          6           0        0.853703   -1.932261    0.309836
     14          1           0        3.485364   -2.121449    0.503593
     15          1           0        3.906047   -0.546952    1.182617
     16          1           0        3.340777    1.480058   -1.800902
     17          1           0        3.819786    1.466972   -0.101753
     18          1           0        1.938346    3.417541   -0.810925
     19          1           0        2.183331    2.954902    0.885010
     20          1           0        0.540923    3.032598    0.214239
     21          1           0        2.330710   -0.364094    3.009670
     22          1           0        2.171744   -2.110015    2.732102
     23          1           0        0.720088   -1.096918    2.869015
     24          1           0        2.811877   -0.963035   -1.629709
     25          1           0       -0.296908    1.286829   -1.307954
     26          1           0        0.993093    1.732142   -2.439077
     27          1           0        0.777918    0.039680   -1.981224
     28          1           0        1.181911   -2.943395    0.561021
     29          1           0       -0.166647   -1.803011    0.675027
     30          1           0        0.850669   -1.836724   -0.777345
     31          8           0       -2.312045   -0.894745    2.884474
     32          8           0       -4.070162    0.126941    1.953621
     33          7           0       -2.678266    2.549930    1.742231
     34          6           0       -2.066576    1.402699    2.411734
     35          6           0       -1.811123    1.844050    3.879544
     36          6           0       -2.096461    3.349605    3.850473
     37          6           0       -3.184671    3.450778    2.788255
     38          6           0       -2.942981    0.172200    2.375092
     39          1           0       -1.120051    1.138212    1.933509
     40          1           0       -0.794306    1.607419    4.187494
     41          1           0       -2.508378    1.341931    4.555301
     42          1           0       -2.409157    3.738627    4.819538
     43          1           0       -1.206085    3.886624    3.517968
     44          1           0       -4.144682    3.112760    3.203949
     45          1           0       -3.313119    4.460382    2.395233
     46          1           0       -3.424927    2.236275    1.130589
     47          1           0       -2.917412   -1.649734    2.854056
 ---------------------------------------------------------------------
                    Distance matrix (angstroms):
                    1          2          3          4          5
     1  O    0.000000
     2  H    0.961931   0.000000
     3  C    3.799565   4.034510   0.000000
     4  N    4.191620   4.710202   1.494613   0.000000
     5  O    5.462378   5.963265   2.346575   1.271852   0.000000
     6  C    2.426987   2.606598   1.531926   2.480397   3.638889
     7  C    1.420970   1.946838   2.551641   2.857530   4.114226
     8  C    2.358339   3.201194   2.980037   2.481066   3.640403
     9  C    3.750756   4.469578   2.651502   1.495030   2.349310
    10  C    4.837114   5.668890   3.828146   2.437480   2.754935
    11  C    4.901301   5.062950   1.529269   2.437556   2.752622
    12  C    4.418347   5.025521   3.436684   2.472406   2.955647
    13  C    4.475043   4.504636   1.534983   2.471220   2.951362
    14  H    2.704139   2.472969   2.140805   3.404983   4.460449
    15  H    2.626473   2.922378   2.163183   2.849735   3.952779
    16  H    2.588523   3.474127   3.992444   3.407549   4.465708
    17  H    2.566953   3.450439   3.318237   2.847545   3.951175
    18  H    4.950199   5.848605   4.694357   3.387960   3.798098
    19  H    4.913320   5.748721   3.892859   2.651219   2.985485
    20  H    5.794415   6.577399   4.211085   2.718495   2.520925
    21  H    4.962765   5.242070   2.166663   2.652037   2.986704
    22  H    5.041401   5.003585   2.149654   3.388240   3.794829
    23  H    5.851960   6.033192   2.169092   2.717253   2.515983
    24  H    2.066077   2.303814   2.812082   3.146134   4.286901
    25  H    5.441994   6.019451   3.801132   2.698004   2.677168
    26  H    4.615095   5.299097   4.401925   3.414770   3.921125
    27  H    4.142606   4.573100   3.276610   2.780326   3.391605
    28  H    4.705834   4.516928   2.157272   3.415218   3.915760
    29  H    5.487381   5.576263   2.165062   2.693626   2.669360
    30  H    4.185985   4.225530   2.198079   2.780730   3.388304
    31  O    8.259688   8.488628   4.513770   4.412259   3.404938
    32  O    9.480885   9.812827   6.023938   5.504406   4.354107
    33  N    8.665574   9.242018   5.700073   4.591345   3.398560
    34  C    8.057477   8.538436   4.714803   3.868112   2.596260
    35  C    8.741873   9.234293   5.376382   4.632506   3.449025
    36  C    9.463770  10.067440   6.438056   5.434954   4.295513
    37  C    9.839523  10.447584   6.855374   5.757471   4.558940
    38  C    8.608326   8.952822   5.044869   4.548612   3.366858
    39  H    6.964901   7.452571   3.680541   2.775152   1.503300
    40  H    8.134091   8.612099   4.822356   4.200775   3.181986
    41  H    9.559785   9.983510   6.020840   5.464264   4.279583
    42  H   10.396192  10.992487   7.343812   6.415014   5.297002
    43  H    8.902982   9.573017   6.197441   5.072086   4.079176
    44  H   10.678785  11.233622   7.502613   6.529816   5.282476
    45  H   10.247454  10.920201   7.540855   6.315519   5.201369
    46  H    9.035662   9.572618   6.089820   5.046587   3.894459
    47  H    8.831817   8.982092   5.111032   5.165498   4.239454
                    6          7          8          9         10
     6  C    0.000000
     7  C    1.520696   0.000000
     8  C    2.462147   1.515535   0.000000
     9  C    2.977891   2.545597   1.531307   0.000000
    10  C    4.203212   3.848797   2.495457   1.529346   0.000000
    11  C    2.496755   3.854318   4.203147   3.828090   4.644805
    12  C    3.897768   3.208508   2.535728   1.535330   2.496167
    13  C    2.535181   3.215721   3.901238   3.436268   4.773348
    14  H    1.094382   2.163797   3.426859   3.991003   5.280395
    15  H    1.095236   2.123284   2.662287   3.319864   4.227965
    16  H    3.422787   2.152069   1.092875   2.144233   2.831322
    17  H    2.661146   2.120146   1.095449   2.162815   2.598817
    18  H    4.836350   4.169491   2.686078   2.149266   1.092132
    19  H    4.164985   4.058036   2.761620   2.167501   1.091931
    20  H    4.901424   4.684001   3.452498   2.168555   1.089318
    21  H    2.760487   4.059119   4.161599   3.892401   4.417427
    22  H    2.689709   4.178625   4.838442   4.694964   5.631519
    23  H    3.454142   4.689684   4.900760   4.210157   4.897833
    24  H    2.164399   1.097147   2.158053   2.802802   4.259450
    25  H    4.599414   4.160019   3.480201   2.166715   2.724700
    26  H    4.622537   3.644388   2.775658   2.154836   2.711877
    27  H    3.649626   2.932466   2.801932   2.196014   3.468216
    28  H    2.781849   3.659934   4.631061   4.404190   5.760391
    29  H    3.478647   4.163238   4.598767   3.796754   4.946115
    30  H    2.804065   2.942559   3.657573   3.278202   4.732488
    31  O    6.035142   6.903508   6.869306   5.653892   6.077872
    32  O    7.535225   8.063906   7.780519   6.350484   6.537286
    33  N    7.031771   7.322045   6.544857   5.037750   4.605080
    34  C    6.144540   6.697333   6.146714   4.718673   4.582260
    35  C    6.728453   7.469402   6.884911   5.587461   5.237639
    36  C    7.683613   8.235584   7.402559   6.075289   5.355785
    37  C    8.167225   8.539631   7.683825   6.225925   5.561191
    38  C    6.566554   7.208966   6.928244   5.541413   5.733044
    39  H    5.078642   5.608430   5.080622   3.684145   3.702684
    40  H    6.076582   6.936632   6.405306   5.262814   4.955966
    41  H    7.426642   8.273609   7.812630   6.527386   6.287864
    42  H    8.572787   9.200008   8.375742   7.097168   6.331555
    43  H    7.297393   7.751242   6.786595   5.539796   4.624734
    44  H    8.892813   9.342751   8.588183   7.111382   6.568322
    45  H    8.765888   8.991061   7.995495   6.555751   5.701593
    46  H    7.449913   7.660611   6.959988   5.429850   5.157018
    47  H    6.608602   7.482771   7.575201   6.393936   6.924754
                   11         12         13         14         15
    11  C    0.000000
    12  C    4.774683   0.000000
    13  C    2.496787   3.565023   0.000000
    14  H    2.827980   4.716843   2.645557   0.000000
    15  H    2.598277   4.530256   3.463760   1.765528   0.000000
    16  H    5.279524   2.651613   4.720664   4.278137   3.650984
    17  H    4.222906   3.464886   4.530104   3.654456   2.390175
    18  H    5.630420   2.763641   5.572516   5.899291   4.854200
    19  H    4.416431   3.453996   5.097362   5.254532   3.913988
    20  H    4.901003   2.691591   4.975620   5.942866   5.007494
    21  H    1.091854   5.098475   3.453954   3.271383   2.419348
    22  H    1.092085   5.573461   2.763368   2.586886   2.802120
    23  H    1.089330   4.977887   2.695375   3.780428   3.646469
    24  H    4.269345   2.908586   2.921588   2.519223   3.046229
    25  H    4.952141   1.092466   3.782022   5.404040   5.218288
    26  H    5.759212   1.092594   4.582990   5.451686   5.176508
    27  H    4.732266   1.091400   3.023781   4.263222   4.487674
    28  H    2.712974   4.584264   1.092340   2.446383   3.681065
    29  H    2.726951   3.778206   1.091414   3.669874   4.292105
    30  H    3.470034   3.023760   1.091375   2.943380   3.852311
    31  O    4.081704   5.773041   4.210364   6.386184   6.456156
    32  O    5.974608   6.052880   5.584513   8.015224   8.041672
    33  N    5.804599   5.007163   5.883587   7.832390   7.297741
    34  C    4.577949   4.912533   4.905911   6.847238   6.401882
    35  C    4.837486   6.102068   5.839918   7.427988   6.758428
    36  C    6.054770   6.561688   7.009828   8.502400   7.637455
    37  C    6.736619   6.354442   7.171342   8.986588   8.296879
    38  C    4.867272   5.494779   4.807167   7.077214   6.989161
    39  H    3.698870   4.001016   3.994975   5.820645   5.353997
    40  H    4.098260   6.022564   5.502862   6.766916   5.980294
    41  H    5.331958   6.972470   6.328340   8.020990   7.489173
    42  H    6.808349   7.640573   7.946234   9.365535   8.454300
    43  H    5.909956   6.167293   6.956598   8.197139   7.158516
    44  H    7.293569   7.151839   7.668897   9.638800   9.071577
    45  H    7.540953   6.627861   7.910573   9.649776   8.869058
    46  H    6.320306   5.113919   6.029677   8.193595   7.841699
    47  H    4.704018   6.374476   4.557870   6.836865   7.111218
                   16         17         18         19         20
    16  H    0.000000
    17  H    1.765426   0.000000
    18  H    2.588572   2.801332   0.000000
    19  H    3.275511   2.421905   1.774894   0.000000
    20  H    3.782903   3.647188   1.775369   1.775802   0.000000
    21  H    5.250022   3.905266   5.389959   3.943556   4.749241
    22  H    5.899440   4.851970   6.569733   5.391221   5.953627
    23  H    5.942806   5.000712   5.950332   4.742847   4.912519
    24  H    2.505543   3.042279   4.541245   4.697777   4.952016
    25  H    3.676015   4.293547   3.127832   3.707175   2.463076
    26  H    2.445901   3.677444   2.526846   3.736491   2.989269
    27  H    2.945412   3.850004   3.758475   4.323078   3.719379
    28  H    5.459516   5.181601   6.551026   5.991470   6.020267
    29  H    5.404701   5.214194   5.821788   5.310765   4.908777
    30  H    4.271926   4.492938   5.365768   5.243958   4.978903
    31  O    7.716659   7.217660   7.093490   6.247083   5.540181
    32  O    8.417208   8.262658   7.387349   6.945896   5.721049
    33  N    7.065925   6.840888   5.346444   4.953176   3.595957
    34  C    6.855053   6.400860   5.521279   4.775137   3.779498
    35  C    7.677372   6.906523   6.207648   5.114381   4.514336
    36  C    8.062059   7.359781   6.165461   5.221722   4.503164
    37  C    8.217395   7.832628   6.261031   5.716965   4.547580
    38  C    7.657352   7.317528   6.671604   6.020204   4.998875
    39  H    5.827665   5.352791   4.699048   3.913061   3.050151
    40  H    7.278462   6.301366   5.977300   4.646335   4.427271
    41  H    8.639039   7.858081   7.271718   6.171292   5.567891
    42  H    9.055004   8.257073   7.120814   6.098007   5.514547
    43  H    7.399723   6.649547   5.370922   4.391892   3.833539
    44  H    9.151303   8.778897   7.294884   6.741375   5.558748
    45  H    8.412147   8.128578   6.240581   5.895609   4.652842
    46  H    7.412170   7.388935   5.824909   5.659443   4.147505
    47  H    8.404115   7.990024   7.917559   7.148244   6.391630
                   21         22         23         24         25
    21  H    0.000000
    22  H    1.774980   0.000000
    23  H    1.775083   1.775504   0.000000
    24  H    4.702562   4.555297   4.963066   0.000000
    25  H    5.317123   5.827079   4.915649   3.850969   0.000000
    26  H    5.989346   6.549235   6.021126   3.350676   1.772525
    27  H    5.242444   5.364642   4.981969   2.294774   1.778742
    28  H    3.737434   2.527426   2.991587   3.373116   4.855385
    29  H    3.709155   3.129518   2.469504   3.858623   3.673730
    30  H    4.324424   3.759807   3.722943   2.310020   3.369727
    31  O    4.674660   4.648060   3.038905   6.829135   5.137752
    32  O    6.505960   6.676181   5.028148   7.835226   5.120611
    33  N    5.931928   6.798347   5.110572   7.338431   4.070617
    34  C    4.776527   5.514087   3.771298   6.762342   4.120829
    35  C    4.773611   5.728393   4.009675   7.720345   5.432631
    36  C    5.839380   7.019671   5.354230   8.527781   5.839761
    37  C    6.709822   7.721189   5.994598   8.657872   5.459009
    38  C    5.338738   5.612164   3.908030   7.102506   4.670003
    39  H    3.914435   4.693043   3.042547   5.707173   3.347646
    40  H    3.878125   4.973422   3.368265   7.311062   5.527217
    41  H    5.358756   6.094549   4.383439   8.477755   6.266689
    42  H    6.524897   7.716778   6.081053   9.537170   6.929579
    43  H    5.553007   6.927264   5.382097   8.133990   5.556533
    44  H    7.352344   8.209583   6.442015   9.400535   6.204567
    45  H    7.450229   8.565473   6.882936   9.117521   5.734332
    46  H    6.589402   7.264834   5.595842   7.533429   4.078290
    47  H    5.405540   5.111383   3.679298   7.307561   5.728243
                   26         27         28         29         30
    26  H    0.000000
    27  H    1.766453   0.000000
    28  H    5.558497   3.940172   0.000000
    29  H    4.851798   3.367994   1.769769   0.000000
    30  H    3.939345   2.230585   1.767955   1.773542   0.000000
    31  O    6.794458   5.839181   4.669382   3.210815   4.929402
    32  O    6.892678   6.244557   6.241039   4.538386   5.960598
    33  N    5.624144   5.666629   6.817099   5.137631   6.168013
    34  C    5.744604   5.408054   5.732917   4.111260   5.401334
    35  C    6.913836   6.656387   6.549082   5.125845   6.505371
    36  C    7.191660   7.295639   7.821130   6.352723   7.549853
    37  C    6.908866   7.077121   8.056865   6.416892   7.546864
    38  C    6.411109   5.730632   5.478369   3.807849   5.325919
    39  H    4.892611   4.487114   4.882855   3.338196   4.481374
    40  H    6.864531   6.556125   6.145457   4.935829   6.262402
    41  H    7.831595   7.431134   6.923620   5.516420   7.058622
    42  H    8.263703   8.371978   8.699434   7.274309   8.546116
    43  H    6.705562   6.998311   7.816343   6.444741   7.445580
    44  H    7.755422   7.782148   8.487324   6.810654   8.080942
    45  H    7.025476   7.445305   8.853561   7.217305   8.188768
    46  H    5.702243   5.672065   6.955311   5.209583   6.205663
    47  H    7.399080   6.315814   4.871962   3.512601   5.236456
                   31         32         33         34         35
    31  O    0.000000
    32  O    2.236359   0.000000
    33  N    3.647550   2.802309   0.000000
    34  C    2.358386   2.419046   1.462374   0.000000
    35  C    2.956702   3.429417   2.412117   1.553871   0.000000
    36  C    4.358227   4.228370   2.328661   2.421014   1.532632
    37  C    4.433318   3.539577   1.470422   2.363585   2.378891
    38  C    1.340120   1.204252   2.474709   1.511144   2.517849
    39  H    2.541279   3.118690   2.111295   1.092960   2.182393
    40  H    3.203469   4.232403   3.227528   2.194061   1.088460
    41  H    2.798737   3.268656   3.066184   2.189466   1.093131
    42  H    5.022155   4.900683   3.309869   3.372157   2.197875
    43  H    4.948328   4.978487   2.665953   2.852031   2.160767
    44  H    4.418226   3.237899   2.145640   2.805430   2.740721
    45  H    5.469816   4.421181   2.116430   3.302055   3.362197
    46  H    3.757379   2.354357   1.014884   2.044822   3.211690
    47  H    0.968195   2.301345   4.350922   3.199518   3.805526
                   36         37         38         39         40
    36  C    0.000000
    37  C    1.524055   0.000000
    38  C    3.604060   3.313336   0.000000
    39  H    3.085188   3.215775   2.109798   0.000000
    40  H    2.201001   3.327114   3.156177   2.325233   0.000000
    41  H    2.167306   2.833207   2.512063   2.973675   1.773078
    42  H    1.090048   2.193260   4.356568   4.093057   2.747594
    43  H    1.091658   2.153427   4.256749   3.173591   2.410934
    44  H    2.160856   1.099399   3.282983   3.829001   3.802424
    45  H    2.198137   1.090993   4.304174   4.007436   4.206664
    46  H    3.225228   2.068961   2.457938   2.676355   4.081702
    47  H    5.163351   5.107933   1.884013   3.442463   4.110313
                   41         42         43         44         45
    41  H    0.000000
    42  H    2.413259   0.000000
    43  H    3.040968   1.778586   0.000000
    44  H    2.763961   2.452322   3.054967   0.000000
    45  H    3.877917   2.686138   2.455469   1.778090   0.000000
    46  H    3.656304   4.110620   3.653285   2.363280   2.560952
    47  H    3.465775   5.758114   5.832724   4.930514   6.140083
                   46         47
    46  H    0.000000
    47  H    4.281234   0.000000
 Stoichiometry    C14H27N2O4(2)
 Framework group  C1[X(C14H27N2O4)]
 Deg. of freedom   135
 Full point group                 C1      NOp   1
 Largest Abelian subgroup         C1      NOp   1
 Largest concise Abelian subgroup C1      NOp   1
                         Standard orientation:                         
 ---------------------------------------------------------------------
 Center     Atomic      Atomic             Coordinates (Angstroms)
 Number     Number       Type             X           Y           Z
 ---------------------------------------------------------------------
      1          8           0        5.357076   -0.247962   -0.213466
      2          1           0        5.824393    0.585152   -0.100126
      3          6           0        1.848621    1.197384   -0.409454
      4          7           0        1.167585   -0.115661   -0.195046
      5          8           0       -0.101966   -0.076636   -0.129277
      6          6           0        3.327778    0.974701   -0.740066
      7          6           0        4.001759   -0.046496    0.162941
      8          6           0        3.296336   -1.376610   -0.010329
      9          6           0        1.816297   -1.333587    0.380231
     10          6           0        1.104104   -2.552278   -0.208389
     11          6           0        1.163449    1.880768   -1.593594
     12          6           0        1.634896   -1.334280    1.904806
     13          6           0        1.676809    2.068571    0.842620
     14          1           0        3.838264    1.940704   -0.677491
     15          1           0        3.426575    0.616628   -1.770389
     16          1           0        3.789922   -2.145154    0.589743
     17          1           0        3.393005   -1.666043   -1.062418
     18          1           0        1.605724   -3.458683    0.137386
     19          1           0        1.141271   -2.525795   -1.299365
     20          1           0        0.062873   -2.580720    0.110427
     21          1           0        1.197193    1.237884   -2.475471
     22          1           0        1.686638    2.812570   -1.818690
     23          1           0        0.123629    2.106195   -1.359939
     24          1           0        3.954888    0.276698    1.210357
     25          1           0        0.571581   -1.302459    2.153466
     26          1           0        2.057602   -2.255434    2.312920
     27          1           0        2.138352   -0.492217    2.382943
     28          1           0        2.117347    3.051367    0.660292
     29          1           0        0.615475    2.203903    1.058116
     30          1           0        2.159862    1.637908    1.721419
     31          8           0       -2.474816    2.343312    0.197882
     32          8           0       -3.793052    1.336273    1.697692
     33          7           0       -3.212120   -1.199468    0.655830
     34          6           0       -2.693528    0.003026    0.004978
     35          6           0       -3.296164    0.013832   -1.427233
     36          6           0       -3.944749   -1.369535   -1.548029
     37          6           0       -4.382037   -1.646573   -0.114581
     38          6           0       -3.062374    1.269176    0.742794
     39          1           0       -1.602545   -0.030510   -0.051540
     40          1           0       -2.524864    0.191198   -2.174482
     41          1           0       -4.056126    0.794656   -1.515025
     42          1           0       -4.772411   -1.387083   -2.257164
     43          1           0       -3.195006   -2.102244   -1.852558
     44          1           0       -5.285213   -1.064942    0.119208
     45          1           0       -4.588326   -2.700278    0.078852
     46          1           0       -3.459566   -0.992989    1.618184
     47          1           0       -2.753916    3.127100    0.693041
 ---------------------------------------------------------------------
 Rotational constants (GHZ):           0.5973222           0.1770054           0.1595060
 Standard basis: 6-311G(d,p) (5D, 7F)
 There are   542 symmetry adapted cartesian basis functions of A   symmetry.
 There are   522 symmetry adapted basis functions of A   symmetry.
   522 basis functions,   856 primitive gaussians,   542 cartesian basis functions
    79 alpha electrons       78 beta electrons
       nuclear repulsion energy      1766.7826358850 Hartrees.
 NAtoms=   47 NActive=   47 NUniq=   47 SFac= 1.00D+00 NAtFMM=   60 NAOKFM=F Big=F
 Integral buffers will be    131072 words long.
 Raffenetti 2 integral format.
 Two-electron integral symmetry is turned on.
 ------------------------------------------------------------------------------
 Polarizable Continuum Model (PCM)
 =================================
 Model                : PCM.
 Atomic radii         : UFF (Universal Force Field).
 Polarization charges : Total charges.
 Charge compensation  : None.
 Solution method      : On-the-fly selection.
 Cavity type          : Scaled VdW (van der Waals Surface) (Alpha=1.100).
 Cavity algorithm     : GePol (No added spheres)
                        Default sphere list used, NSphG=   47.
                        Lebedev-Laikov grids with approx.  5.0 points / Ang**2.
                        Smoothing algorithm: York/Karplus (Gamma=1.0000).
                        Polarization charges: spherical gaussians, with
                                              point-specific exponents (IZeta= 3).
                        Self-potential: point-specific (ISelfS= 7).
                        Self-field    : sphere-specific E.n sum rule (ISelfD= 2).
 1st derivatives      : Analytical E(r).r(x)/FMM algorithm (CHGder, D1EAlg=3).
                        Cavity 1st derivative terms included.
 Solvent              : Water, Eps=  78.355300 Eps(inf)=   1.777849
 ------------------------------------------------------------------------------
 One-electron integrals computed using PRISM.
 NBasis=   522 RedAO= T EigKep=  8.90D-04  NBF=   522
 NBsUse=   522 1.00D-06 EigRej= -1.00D+00 NBFU=   522
 ExpMin= 1.03D-01 ExpMax= 8.59D+03 ExpMxC= 1.30D+03 IAcc=3 IRadAn=         5 AccDes= 0.00D+00
 Harris functional with IExCor= 1009 and IRadAn=       5 diagonalized for initial guess.
 HarFok:  IExCor= 1009 AccDes= 0.00D+00 IRadAn=         5 IDoV= 1 UseB2=F ITyADJ=14
 ICtDFT=  3500011 ScaDFX=  1.000000  1.000000  1.000000  1.000000
 FoFCou: FMM=F IPFlag=           0 FMFlag=      100000 FMFlg1=           0
         NFxFlg=           0 DoJE=T BraDBF=F KetDBF=T FulRan=T
         wScrn=  0.000000 ICntrl=       500 IOpCl=  0 I1Cent=   200000004 NGrid=           0
         NMat0=    1 NMatS0=      1 NMatT0=    0 NMatD0=    1 NMtDS0=    0 NMtDT0=    0
 Petite list used in FoFCou.
 Initial guess <Sx>= 0.0000 <Sy>= 0.0000 <Sz>= 0.5000 <S**2>= 0.7500 S= 0.5000
 Requested convergence on RMS density matrix=1.00D-08 within 128 cycles.
 Requested convergence on MAX density matrix=1.00D-06.
 Requested convergence on             energy=1.00D-06.
 No special actions if energy rises.
 Inv3:  Mode=1 IEnd=    27216432.
 Iteration    1 A*A^-1 deviation from unit magnitude is 5.55D-15 for   1435.
 Iteration    1 A*A^-1 deviation from orthogonality  is 3.56D-15 for   3005    954.
 Iteration    1 A^-1*A deviation from unit magnitude is 4.66D-15 for   1439.
 Iteration    1 A^-1*A deviation from orthogonality  is 2.47D-15 for   2358   1745.
 Error on total polarization charges =  0.01284
 SCF Done:  E(UM062X) =  -959.949689171     A.U. after   15 cycles
            NFock= 15  Conv=0.35D-08     -V/T= 2.0035
 <Sx>= 0.0000 <Sy>= 0.0000 <Sz>= 0.5000 <S**2>= 0.7548 S= 0.5024
 <L.S>= 0.000000000000E+00
 Annihilation of the first spin contaminant:
 S**2 before annihilation     0.7548,   after     0.7500

 **********************************************************************

            Population analysis using the SCF density.

 **********************************************************************

 Orbital symmetries:
 Alpha Orbitals:
       Occupied  (A) (A) (A) (A) (A) (A) (A) (A) (A) (A) (A) (A)
                 (A) (A) (A) (A) (A) (A) (A) (A) (A) (A) (A) (A)
                 (A) (A) (A) (A) (A) (A) (A) (A) (A) (A) (A) (A)
                 (A) (A) (A) (A) (A) (A) (A) (A) (A) (A) (A) (A)
                 (A) (A) (A) (A) (A) (A) (A) (A) (A) (A) (A) (A)
                 (A) (A) (A) (A) (A) (A) (A) (A) (A) (A) (A) (A)
                 (A) (A) (A) (A) (A) (A) (A)
       Virtual   (A) (A) (A) (A) (A) (A) (A) (A) (A) (A) (A) (A)
                 (A) (A) (A) (A) (A) (A) (A) (A) (A) (A) (A) (A)
                 (A) (A) (A) (A) (A) (A) (A) (A) (A) (A) (A) (A)
                 (A) (A) (A) (A) (A) (A) (A) (A) (A) (A) (A) (A)
                 (A) (A) (A) (A) (A) (A) (A) (A) (A) (A) (A) (A)
                 (A) (A) (A) (A) (A) (A) (A) (A) (A) (A) (A) (A)
                 (A) (A) (A) (A) (A) (A) (A) (A) (A) (A) (A) (A)
                 (A) (A) (A) (A) (A) (A) (A) (A) (A) (A) (A) (A)
                 (A) (A) (A) (A) (A) (A) (A) (A) (A) (A) (A) (A)
                 (A) (A) (A) (A) (A) (A) (A) (A) (A) (A) (A) (A)
                 (A) (A) (A) (A) (A) (A) (A) (A) (A) (A) (A) (A)
                 (A) (A) (A) (A) (A) (A) (A) (A) (A) (A) (A) (A)
                 (A) (A) (A) (A) (A) (A) (A) (A) (A) (A) (A) (A)
                 (A) (A) (A) (A) (A) (A) (A) (A) (A) (A) (A) (A)
                 (A) (A) (A) (A) (A) (A) (A) (A) (A) (A) (A) (A)
                 (A) (A) (A) (A) (A) (A) (A) (A) (A) (A) (A) (A)
                 (A) (A) (A) (A) (A) (A) (A) (A) (A) (A) (A) (A)
                 (A) (A) (A) (A) (A) (A) (A) (A) (A) (A) (A) (A)
                 (A) (A) (A) (A) (A) (A) (A) (A) (A) (A) (A) (A)
                 (A) (A) (A) (A) (A) (A) (A) (A) (A) (A) (A) (A)
                 (A) (A) (A) (A) (A) (A) (A) (A) (A) (A) (A) (A)
                 (A) (A) (A) (A) (A) (A) (A) (A) (A) (A) (A) (A)
                 (A) (A) (A) (A) (A) (A) (A) (A) (A) (A) (A) (A)
                 (A) (A) (A) (A) (A) (A) (A) (A) (A) (A) (A) (A)
                 (A) (A) (A) (A) (A) (A) (A) (A) (A) (A) (A) (A)
                 (A) (A) (A) (A) (A) (A) (A) (A) (A) (A) (A) (A)
                 (A) (A) (A) (A) (A) (A) (A) (A) (A) (A) (A) (A)
                 (A) (A) (A) (A) (A) (A) (A) (A) (A) (A) (A) (A)
                 (A) (A) (A) (A) (A) (A) (A) (A) (A) (A) (A) (A)
                 (A) (A) (A) (A) (A) (A) (A) (A) (A) (A) (A) (A)
                 (A) (A) (A) (A) (A) (A) (A) (A) (A) (A) (A) (A)
                 (A) (A) (A) (A) (A) (A) (A) (A) (A) (A) (A) (A)
                 (A) (A) (A) (A) (A) (A) (A) (A) (A) (A) (A) (A)
                 (A) (A) (A) (A) (A) (A) (A) (A) (A) (A) (A) (A)
                 (A) (A) (A) (A) (A) (A) (A) (A) (A) (A) (A) (A)
                 (A) (A) (A) (A) (A) (A) (A) (A) (A) (A) (A) (A)
                 (A) (A) (A) (A) (A) (A) (A) (A) (A) (A) (A)
 Beta  Orbitals:
       Occupied  (A) (A) (A) (A) (A) (A) (A) (A) (A) (A) (A) (A)
                 (A) (A) (A) (A) (A) (A) (A) (A) (A) (A) (A) (A)
                 (A) (A) (A) (A) (A) (A) (A) (A) (A) (A) (A) (A)
                 (A) (A) (A) (A) (A) (A) (A) (A) (A) (A) (A) (A)
                 (A) (A) (A) (A) (A) (A) (A) (A) (A) (A) (A) (A)
                 (A) (A) (A) (A) (A) (A) (A) (A) (A) (A) (A) (A)
                 (A) (A) (A) (A) (A) (A)
       Virtual   (A) (A) (A) (A) (A) (A) (A) (A) (A) (A) (A) (A)
                 (A) (A) (A) (A) (A) (A) (A) (A) (A) (A) (A) (A)
                 (A) (A) (A) (A) (A) (A) (A) (A) (A) (A) (A) (A)
                 (A) (A) (A) (A) (A) (A) (A) (A) (A) (A) (A) (A)
                 (A) (A) (A) (A) (A) (A) (A) (A) (A) (A) (A) (A)
                 (A) (A) (A) (A) (A) (A) (A) (A) (A) (A) (A) (A)
                 (A) (A) (A) (A) (A) (A) (A) (A) (A) (A) (A) (A)
                 (A) (A) (A) (A) (A) (A) (A) (A) (A) (A) (A) (A)
                 (A) (A) (A) (A) (A) (A) (A) (A) (A) (A) (A) (A)
                 (A) (A) (A) (A) (A) (A) (A) (A) (A) (A) (A) (A)
                 (A) (A) (A) (A) (A) (A) (A) (A) (A) (A) (A) (A)
                 (A) (A) (A) (A) (A) (A) (A) (A) (A) (A) (A) (A)
                 (A) (A) (A) (A) (A) (A) (A) (A) (A) (A) (A) (A)
                 (A) (A) (A) (A) (A) (A) (A) (A) (A) (A) (A) (A)
                 (A) (A) (A) (A) (A) (A) (A) (A) (A) (A) (A) (A)
                 (A) (A) (A) (A) (A) (A) (A) (A) (A) (A) (A) (A)
                 (A) (A) (A) (A) (A) (A) (A) (A) (A) (A) (A) (A)
                 (A) (A) (A) (A) (A) (A) (A) (A) (A) (A) (A) (A)
                 (A) (A) (A) (A) (A) (A) (A) (A) (A) (A) (A) (A)
                 (A) (A) (A) (A) (A) (A) (A) (A) (A) (A) (A) (A)
                 (A) (A) (A) (A) (A) (A) (A) (A) (A) (A) (A) (A)
                 (A) (A) (A) (A) (A) (A) (A) (A) (A) (A) (A) (A)
                 (A) (A) (A) (A) (A) (A) (A) (A) (A) (A) (A) (A)
                 (A) (A) (A) (A) (A) (A) (A) (A) (A) (A) (A) (A)
                 (A) (A) (A) (A) (A) (A) (A) (A) (A) (A) (A) (A)
                 (A) (A) (A) (A) (A) (A) (A) (A) (A) (A) (A) (A)
                 (A) (A) (A) (A) (A) (A) (A) (A) (A) (A) (A) (A)
                 (A) (A) (A) (A) (A) (A) (A) (A) (A) (A) (A) (A)
                 (A) (A) (A) (A) (A) (A) (A) (A) (A) (A) (A) (A)
                 (A) (A) (A) (A) (A) (A) (A) (A) (A) (A) (A) (A)
                 (A) (A) (A) (A) (A) (A) (A) (A) (A) (A) (A) (A)
                 (A) (A) (A) (A) (A) (A) (A) (A) (A) (A) (A) (A)
                 (A) (A) (A) (A) (A) (A) (A) (A) (A) (A) (A) (A)
                 (A) (A) (A) (A) (A) (A) (A) (A) (A) (A) (A) (A)
                 (A) (A) (A) (A) (A) (A) (A) (A) (A) (A) (A) (A)
                 (A) (A) (A) (A) (A) (A) (A) (A) (A) (A) (A) (A)
                 (A) (A) (A) (A) (A) (A) (A) (A) (A) (A) (A) (A)
 The electronic state is 2-A.
 Alpha  occ. eigenvalues --  -19.66544 -19.62996 -19.61885 -19.61232 -14.84658
 Alpha  occ. eigenvalues --  -14.72000 -10.66940 -10.59549 -10.59521 -10.59296
 Alpha  occ. eigenvalues --  -10.55182 -10.54705 -10.53950 -10.53938 -10.53518
 Alpha  occ. eigenvalues --  -10.53171 -10.53107 -10.52961 -10.52777 -10.52697
 Alpha  occ. eigenvalues --   -1.24138  -1.23834  -1.15012  -1.14300  -1.02260
 Alpha  occ. eigenvalues --   -0.98721  -0.93152  -0.86719  -0.85997  -0.84006
 Alpha  occ. eigenvalues --   -0.82495  -0.79352  -0.78421  -0.78288  -0.73368
 Alpha  occ. eigenvalues --   -0.69585  -0.69107  -0.66524  -0.65749  -0.62786
 Alpha  occ. eigenvalues --   -0.60594  -0.59817  -0.58877  -0.57887  -0.57052
 Alpha  occ. eigenvalues --   -0.56292  -0.55322  -0.53546  -0.52963  -0.52267
 Alpha  occ. eigenvalues --   -0.51614  -0.50282  -0.50044  -0.48732  -0.47692
 Alpha  occ. eigenvalues --   -0.47505  -0.47085  -0.46401  -0.45952  -0.44746
 Alpha  occ. eigenvalues --   -0.44279  -0.43471  -0.43169  -0.43123  -0.42786
 Alpha  occ. eigenvalues --   -0.41760  -0.41275  -0.40729  -0.40134  -0.40079
 Alpha  occ. eigenvalues --   -0.39957  -0.39578  -0.38273  -0.38059  -0.35325
 Alpha  occ. eigenvalues --   -0.34848  -0.34386  -0.28369  -0.27447
 Alpha virt. eigenvalues --    0.05789   0.06234   0.07593   0.07770   0.08507
 Alpha virt. eigenvalues --    0.09080   0.10086   0.10213   0.10788   0.11014
 Alpha virt. eigenvalues --    0.12173   0.13219   0.14114   0.14695   0.15383
 Alpha virt. eigenvalues --    0.15512   0.16258   0.16414   0.16838   0.16931
 Alpha virt. eigenvalues --    0.17278   0.17993   0.17999   0.18609   0.20041
 Alpha virt. eigenvalues --    0.20489   0.20497   0.20806   0.20964   0.21945
 Alpha virt. eigenvalues --    0.22477   0.22783   0.23058   0.23604   0.24491
 Alpha virt. eigenvalues --    0.25849   0.26159   0.28120   0.28745   0.29116
 Alpha virt. eigenvalues --    0.29164   0.30198   0.30762   0.31435   0.32557
 Alpha virt. eigenvalues --    0.33495   0.34247   0.34764   0.34884   0.35442
 Alpha virt. eigenvalues --    0.36374   0.36906   0.38487   0.38830   0.39285
 Alpha virt. eigenvalues --    0.41454   0.41986   0.42943   0.43654   0.44090
 Alpha virt. eigenvalues --    0.44654   0.45226   0.45796   0.47377   0.47588
 Alpha virt. eigenvalues --    0.48947   0.49400   0.50185   0.50675   0.51458
 Alpha virt. eigenvalues --    0.52058   0.52572   0.53413   0.54006   0.54378
 Alpha virt. eigenvalues --    0.56126   0.57017   0.57461   0.58712   0.59268
 Alpha virt. eigenvalues --    0.59821   0.60115   0.60641   0.61069   0.62094
 Alpha virt. eigenvalues --    0.62264   0.62371   0.62543   0.63586   0.64067
 Alpha virt. eigenvalues --    0.64244   0.64424   0.64763   0.65320   0.65501
 Alpha virt. eigenvalues --    0.65681   0.65868   0.66283   0.66884   0.67680
 Alpha virt. eigenvalues --    0.67806   0.68182   0.68572   0.68626   0.68895
 Alpha virt. eigenvalues --    0.69221   0.69843   0.70250   0.70465   0.71368
 Alpha virt. eigenvalues --    0.71825   0.72509   0.73267   0.74303   0.74428
 Alpha virt. eigenvalues --    0.75205   0.76403   0.77450   0.78096   0.79615
 Alpha virt. eigenvalues --    0.84922   0.86035   0.86568   0.88053   0.89138
 Alpha virt. eigenvalues --    0.92197   0.93122   0.93222   0.94130   0.95618
 Alpha virt. eigenvalues --    0.96416   0.96880   0.98319   0.98880   0.99831
 Alpha virt. eigenvalues --    1.00874   1.01969   1.03729   1.04236   1.05843
 Alpha virt. eigenvalues --    1.07142   1.09054   1.10331   1.10772   1.12309
 Alpha virt. eigenvalues --    1.12932   1.13715   1.15802   1.16980   1.18337
 Alpha virt. eigenvalues --    1.20004   1.21714   1.24499   1.25028   1.25834
 Alpha virt. eigenvalues --    1.28252   1.28991   1.30640   1.31236   1.33681
 Alpha virt. eigenvalues --    1.34132   1.35183   1.35632   1.37771   1.40307
 Alpha virt. eigenvalues --    1.41173   1.42596   1.43116   1.44631   1.45423
 Alpha virt. eigenvalues --    1.45694   1.46455   1.47432   1.48043   1.48449
 Alpha virt. eigenvalues --    1.49140   1.49217   1.49927   1.50280   1.50969
 Alpha virt. eigenvalues --    1.51770   1.52132   1.52872   1.52972   1.54210
 Alpha virt. eigenvalues --    1.54751   1.55473   1.55654   1.56062   1.56807
 Alpha virt. eigenvalues --    1.58104   1.58116   1.58728   1.59097   1.59843
 Alpha virt. eigenvalues --    1.60619   1.61000   1.62022   1.62664   1.64301
 Alpha virt. eigenvalues --    1.64708   1.66032   1.66718   1.67045   1.67645
 Alpha virt. eigenvalues --    1.68486   1.69098   1.69512   1.70216   1.70833
 Alpha virt. eigenvalues --    1.71504   1.71872   1.72250   1.72600   1.73652
 Alpha virt. eigenvalues --    1.74278   1.74508   1.75080   1.76033   1.76342
 Alpha virt. eigenvalues --    1.76630   1.77942   1.79037   1.79700   1.80091
 Alpha virt. eigenvalues --    1.81029   1.81965   1.82485   1.83577   1.83924
 Alpha virt. eigenvalues --    1.85595   1.86730   1.87192   1.87627   1.88704
 Alpha virt. eigenvalues --    1.89065   1.90446   1.90601   1.92545   1.93341
 Alpha virt. eigenvalues --    1.93483   1.94455   1.96757   1.96840   1.97570
 Alpha virt. eigenvalues --    1.98116   1.99366   2.00936   2.03254   2.03806
 Alpha virt. eigenvalues --    2.05077   2.06610   2.07511   2.08630   2.09439
 Alpha virt. eigenvalues --    2.10075   2.11690   2.13390   2.14896   2.15556
 Alpha virt. eigenvalues --    2.15881   2.17467   2.18316   2.19394   2.20183
 Alpha virt. eigenvalues --    2.21402   2.22081   2.23759   2.24715   2.25675
 Alpha virt. eigenvalues --    2.25876   2.26557   2.27932   2.29655   2.30864
 Alpha virt. eigenvalues --    2.32031   2.32636   2.36834   2.37849   2.38576
 Alpha virt. eigenvalues --    2.40909   2.41479   2.42038   2.42727   2.45964
 Alpha virt. eigenvalues --    2.46810   2.48148   2.48746   2.49080   2.49693
 Alpha virt. eigenvalues --    2.50431   2.51051   2.52212   2.52782   2.53870
 Alpha virt. eigenvalues --    2.54486   2.55361   2.56475   2.56923   2.57296
 Alpha virt. eigenvalues --    2.57675   2.57931   2.58495   2.58826   2.60055
 Alpha virt. eigenvalues --    2.60354   2.61007   2.61237   2.61814   2.64314
 Alpha virt. eigenvalues --    2.65147   2.65926   2.67306   2.68002   2.68435
 Alpha virt. eigenvalues --    2.68803   2.69879   2.70402   2.71163   2.72212
 Alpha virt. eigenvalues --    2.73591   2.74119   2.76150   2.76616   2.77533
 Alpha virt. eigenvalues --    2.77901   2.79581   2.79937   2.81929   2.85404
 Alpha virt. eigenvalues --    2.85967   2.86852   2.87087   2.88268   2.89266
 Alpha virt. eigenvalues --    2.89601   2.90280   2.91224   2.94027   2.94310
 Alpha virt. eigenvalues --    2.95520   2.96082   2.99077   3.01081   3.01275
 Alpha virt. eigenvalues --    3.02858   3.06110   3.06714   3.07830   3.09135
 Alpha virt. eigenvalues --    3.10290   3.14050   3.16944   3.17635   3.18543
 Alpha virt. eigenvalues --    3.20876   3.22699   3.23512   3.24512   3.25845
 Alpha virt. eigenvalues --    3.26005   3.29777   3.29913   3.32232   3.34109
 Alpha virt. eigenvalues --    3.39685   3.40757   3.41889   3.42472   3.51049
 Alpha virt. eigenvalues --    3.54039   3.55116   3.58051   3.64555   3.67472
 Alpha virt. eigenvalues --    3.72293   3.77763   3.78427   3.80190   3.80791
 Alpha virt. eigenvalues --    3.81938   3.82725   3.83312   3.83568   3.84557
 Alpha virt. eigenvalues --    3.84801   3.86352   3.87561   3.88018   3.89935
 Alpha virt. eigenvalues --    3.89998   3.92191   3.95607   3.96446   3.98049
 Alpha virt. eigenvalues --    4.02076   4.15648   4.19031   4.21918   4.23663
 Alpha virt. eigenvalues --    4.24162   4.27571   4.32954   4.36274   4.37305
 Alpha virt. eigenvalues --    4.38554   4.39170   4.85889   4.91764   4.91943
 Alpha virt. eigenvalues --    4.95587   4.97445   5.02942   5.04635   5.07769
 Alpha virt. eigenvalues --    5.16718   5.22671   5.39528   5.39831   5.67716
 Alpha virt. eigenvalues --    5.74798   5.84107   6.05309  23.78083  23.85245
 Alpha virt. eigenvalues --   23.87063  23.88884  23.91013  23.93831  23.94617
 Alpha virt. eigenvalues --   23.97159  23.97359  24.00676  24.01836  24.02956
 Alpha virt. eigenvalues --   24.03401  24.08126  35.54628  35.69128  49.96362
 Alpha virt. eigenvalues --   50.02343  50.05038  50.11537
  Beta  occ. eigenvalues --  -19.66544 -19.62016 -19.61885 -19.61232 -14.83797
  Beta  occ. eigenvalues --  -14.72000 -10.66939 -10.59581 -10.59554 -10.59297
  Beta  occ. eigenvalues --  -10.55182 -10.54711 -10.53948 -10.53936 -10.53516
  Beta  occ. eigenvalues --  -10.53133 -10.53070 -10.52961 -10.52762 -10.52682
  Beta  occ. eigenvalues --   -1.23847  -1.21196  -1.15009  -1.14301  -1.02255
  Beta  occ. eigenvalues --   -0.97426  -0.92951  -0.86076  -0.85891  -0.83956
  Beta  occ. eigenvalues --   -0.81083  -0.79113  -0.78353  -0.78197  -0.73367
  Beta  occ. eigenvalues --   -0.69310  -0.68517  -0.66479  -0.65581  -0.62167
  Beta  occ. eigenvalues --   -0.60402  -0.59711  -0.58585  -0.57739  -0.56309
  Beta  occ. eigenvalues --   -0.55079  -0.53525  -0.53131  -0.52432  -0.52170
  Beta  occ. eigenvalues --   -0.51360  -0.50180  -0.49883  -0.47995  -0.47398
  Beta  occ. eigenvalues --   -0.47099  -0.46981  -0.46162  -0.45760  -0.43885
  Beta  occ. eigenvalues --   -0.43713  -0.43332  -0.43111  -0.42759  -0.42425
  Beta  occ. eigenvalues --   -0.41564  -0.41136  -0.40246  -0.40063  -0.39812
  Beta  occ. eigenvalues --   -0.39575  -0.38408  -0.38000  -0.37420  -0.35191
  Beta  occ. eigenvalues --   -0.34686  -0.33198  -0.28309
  Beta virt. eigenvalues --   -0.02505   0.05806   0.06273   0.07642   0.07776
  Beta virt. eigenvalues --    0.08508   0.09075   0.10123   0.10298   0.10828
  Beta virt. eigenvalues --    0.11030   0.12166   0.13220   0.14123   0.14737
  Beta virt. eigenvalues --    0.15366   0.15523   0.16303   0.16455   0.16846
  Beta virt. eigenvalues --    0.17066   0.17357   0.18038   0.18135   0.18655
  Beta virt. eigenvalues --    0.20161   0.20569   0.20762   0.20925   0.20982
  Beta virt. eigenvalues --    0.21952   0.22591   0.22899   0.23126   0.24074
  Beta virt. eigenvalues --    0.24582   0.26001   0.26237   0.28318   0.28890
  Beta virt. eigenvalues --    0.29219   0.29460   0.30340   0.30860   0.31572
  Beta virt. eigenvalues --    0.32580   0.33536   0.34285   0.34891   0.34963
  Beta virt. eigenvalues --    0.36136   0.36416   0.36991   0.38614   0.38965
  Beta virt. eigenvalues --    0.39328   0.41543   0.42486   0.43047   0.43751
  Beta virt. eigenvalues --    0.44180   0.44780   0.45328   0.45915   0.47430
  Beta virt. eigenvalues --    0.47699   0.49030   0.49594   0.50244   0.50737
  Beta virt. eigenvalues --    0.51545   0.52214   0.52633   0.53556   0.54091
  Beta virt. eigenvalues --    0.54530   0.56198   0.57048   0.57671   0.58771
  Beta virt. eigenvalues --    0.59349   0.59946   0.60161   0.60711   0.61204
  Beta virt. eigenvalues --    0.62130   0.62391   0.62426   0.62599   0.63628
  Beta virt. eigenvalues --    0.64143   0.64321   0.64482   0.64827   0.65389
  Beta virt. eigenvalues --    0.65519   0.65727   0.65898   0.66386   0.66927
  Beta virt. eigenvalues --    0.67738   0.67872   0.68261   0.68602   0.68647
  Beta virt. eigenvalues --    0.69039   0.69241   0.69893   0.70302   0.70511
  Beta virt. eigenvalues --    0.71511   0.71892   0.72559   0.73333   0.74395
  Beta virt. eigenvalues --    0.74614   0.75269   0.76630   0.77519   0.78152
  Beta virt. eigenvalues --    0.79640   0.85720   0.86270   0.87129   0.88244
  Beta virt. eigenvalues --    0.89157   0.92357   0.93179   0.93920   0.94300
  Beta virt. eigenvalues --    0.95790   0.96743   0.96997   0.98438   0.99031
  Beta virt. eigenvalues --    0.99939   1.00958   1.02059   1.04118   1.04434
  Beta virt. eigenvalues --    1.05905   1.07422   1.09115   1.10514   1.11048
  Beta virt. eigenvalues --    1.12369   1.13585   1.13847   1.15862   1.17210
  Beta virt. eigenvalues --    1.18524   1.20035   1.22147   1.24605   1.25104
  Beta virt. eigenvalues --    1.25991   1.28276   1.29053   1.30704   1.31351
  Beta virt. eigenvalues --    1.33947   1.34375   1.35307   1.35944   1.37838
  Beta virt. eigenvalues --    1.40333   1.41244   1.42685   1.43232   1.44777
  Beta virt. eigenvalues --    1.45469   1.45729   1.46494   1.47545   1.48075
  Beta virt. eigenvalues --    1.48484   1.49213   1.49254   1.49973   1.50306
  Beta virt. eigenvalues --    1.50990   1.51834   1.52189   1.52945   1.53065
  Beta virt. eigenvalues --    1.54280   1.54812   1.55514   1.55720   1.56106
  Beta virt. eigenvalues --    1.56847   1.58158   1.58181   1.58787   1.59154
  Beta virt. eigenvalues --    1.59853   1.60683   1.61040   1.62124   1.62684
  Beta virt. eigenvalues --    1.64360   1.64759   1.66090   1.66751   1.67069
  Beta virt. eigenvalues --    1.67683   1.68640   1.69136   1.69591   1.70241
  Beta virt. eigenvalues --    1.70906   1.71648   1.71992   1.72290   1.72661
  Beta virt. eigenvalues --    1.73673   1.74300   1.74550   1.75120   1.76052
  Beta virt. eigenvalues --    1.76377   1.76679   1.78026   1.79234   1.79787
  Beta virt. eigenvalues --    1.80170   1.81069   1.82085   1.82535   1.83607
  Beta virt. eigenvalues --    1.83978   1.85644   1.86977   1.87251   1.88195
  Beta virt. eigenvalues --    1.88975   1.89246   1.90534   1.90772   1.92651
  Beta virt. eigenvalues --    1.93363   1.93547   1.94476   1.96780   1.96848
  Beta virt. eigenvalues --    1.97664   1.98149   1.99399   2.00967   2.03361
  Beta virt. eigenvalues --    2.03920   2.05192   2.06843   2.07608   2.09027
  Beta virt. eigenvalues --    2.09534   2.10645   2.11774   2.13422   2.14939
  Beta virt. eigenvalues --    2.15614   2.15899   2.17555   2.18369   2.19439
  Beta virt. eigenvalues --    2.20234   2.21532   2.22331   2.24008   2.24902
  Beta virt. eigenvalues --    2.25711   2.25974   2.26667   2.27974   2.29858
  Beta virt. eigenvalues --    2.31023   2.32155   2.32806   2.37263   2.37907
  Beta virt. eigenvalues --    2.38573   2.40955   2.41549   2.42240   2.42801
  Beta virt. eigenvalues --    2.46115   2.47101   2.48179   2.48772   2.49139
  Beta virt. eigenvalues --    2.49777   2.50473   2.51136   2.52236   2.52855
  Beta virt. eigenvalues --    2.53946   2.54594   2.55432   2.56640   2.56977
  Beta virt. eigenvalues --    2.57358   2.57716   2.57981   2.58541   2.58898
  Beta virt. eigenvalues --    2.60232   2.60425   2.61034   2.61321   2.61852
  Beta virt. eigenvalues --    2.64353   2.65236   2.65950   2.67376   2.68101
  Beta virt. eigenvalues --    2.68468   2.68849   2.69924   2.70480   2.71223
  Beta virt. eigenvalues --    2.72273   2.73658   2.74239   2.76159   2.76622
  Beta virt. eigenvalues --    2.77593   2.77959   2.79798   2.79981   2.82064
  Beta virt. eigenvalues --    2.85505   2.86091   2.86913   2.87360   2.88509
  Beta virt. eigenvalues --    2.89380   2.89991   2.90323   2.91749   2.94614
  Beta virt. eigenvalues --    2.95586   2.96063   2.96112   2.99082   3.01222
  Beta virt. eigenvalues --    3.01429   3.03449   3.06239   3.07183   3.07998
  Beta virt. eigenvalues --    3.09319   3.10715   3.14089   3.16951   3.17778
  Beta virt. eigenvalues --    3.18553   3.20930   3.23066   3.23816   3.24680
[...]
 905569,0.07921615,-0.00160433,0.00086408,-0.00066305,0.00010224,0.0003
 8394,-0.00004529,0.00012156,0.00016033,-0.00001212,-0.00013140,0.00029
 680,-0.00016905,0.00112526,-0.00026229,0.00003455,-0.00173056,0.001145
 55,-0.00324025,0.28833076,0.00002199,-0.00000889,-0.00001171,0.0000006
 9,0.00000056,0.00000007,-0.00002198,0.00001880,0.00000094,-0.00000275,
 0.00001760,-0.00000146,0.00000071,-0.00001160,0.00002895,-0.00000308,-
 0.00000223,-0.00000275,-0.00000872,0.00001810,0.00000447,0.00000049,-0
 .00004013,0.00001164,0.00000792,0.00005483,-0.00002907,-0.00002630,-0.
 00002527,0.00010794,0.00000206,-0.00000582,-0.00000553,-0.00004562,-0.
 00013110,0.00001430,0.00000798,-0.00000803,-0.00000151,0.00000329,-0.0
 0000326,-0.00000057,0.00000073,0.00000086,0.00000121,-0.00000457,0.000
 00051,-0.00000023,0.00000728,-0.00000002,0.00000156,0.00000921,0.00001
 020,-0.00001774,0.00007078,0.00000098,-0.00000862,0.00000153,-0.000048
 53,-0.00013257,0.00000003,0.00000088,0.00000056,0.00000181,-0.00000277
 ,0.00000244,-0.00000026,0.00000113,-0.00000022,-0.00000022,0.00000021,
 0.00000277,-0.00000866,0.00013308,0.00003931,-0.00001142,0.00001316,0.
 00001143,0.00005759,-0.00000674,-0.00002629,-0.00000058,-0.00000507,0.
 00000018,0.00000017,0.00000208,-0.00000028,-0.00000031,0.00000475,0.00
 000262,-0.00021468,0.00025855,-0.00042390,-0.00116504,0.00000580,-0.00
 054917,0.02989367,-0.00677370,-0.01710064,0.00091478,0.00291448,-0.002
 26265,-0.00012868,0.00035916,-0.00014516,0.00007714,-0.00025920,-0.000
 57391,-0.02040534,-0.05527679,0.01284027,0.00096674,-0.00078489,0.0010
 4083,-0.00027747,-0.00044941,0.00044278,-0.00000090,0.00011257,0.00000
 018,0.00006818,0.00017315,0.00014823,-0.00029927,0.00031130,-0.0000425
 4,-0.00011385,0.00097690,-0.00049932,0.01552889,0.05806593,0.00002154,
 -0.00000547,-0.00001173,-0.00000028,0.00000042,0.00000068,-0.00003056,
 0.00003092,-0.00001302,0.00001289,0.00000002,0.00001985,0.00010284,-0.
 00002888,0.00001434,-0.00000345,-0.00000852,-0.00000284,-0.00001246,0.
 00001197,0.00000956,-0.00000122,-0.00001364,0.00001586,-0.00004886,0.0
 0001053,-0.00001757,0.00002807,0.00006835,0.00012518,0.00000303,-0.000
 00705,-0.00000851,-0.00004763,-0.00011494,0.00001103,0.00001373,-0.000
 01300,0.00000008,0.00000557,-0.00000305,-0.00000227,0.00000080,0.00000
 150,0.00000140,-0.00000193,0.00000014,-0.00000142,0.00000949,-0.000000
 23,0.00000098,0.00001724,0.00000330,-0.00001417,0.00007391,-0.00000373
 ,-0.00002497,-0.00015839,-0.00007294,-0.00012658,-0.00000017,0.0000014
 5,0.00000043,0.00000260,-0.00000395,0.00000315,0.00000002,0.00000247,-
 0.00000068,-0.00000053,0.00000095,0.00000301,-0.00001970,0.00013364,0.
 00007019,-0.00000572,0.00001209,0.00000532,0.00005978,-0.00000664,-0.0
 0002493,-0.00000170,-0.00000791,-0.00000143,0.00000028,0.00000498,0.00
 000093,-0.00000034,0.00000531,0.00000225,-0.00059520,-0.00028917,-0.00
 000409,-0.00072246,0.00096836,-0.00010698,0.02159137,-0.01001507,-0.01
 255551,-0.00089761,0.00149550,-0.00100628,0.00036970,-0.00097216,0.000
 28362,-0.02552771,-0.00353442,0.00808865,0.07925971,0.01308513,-0.0792
 6263,0.00170302,-0.00052066,0.00102805,-0.00007135,-0.00039531,0.00027
 761,0.00017028,0.00000910,0.00000190,0.00011472,0.00017653,-0.00000014
 ,0.00073178,-0.00032067,0.00147598,-0.00407886,0.00118687,-0.00307732,
 -0.08924365,-0.00340210,0.08864952,-0.00000281,-0.00000075,0.00000243,
 0.00000023,0.00000008,-0.00000046,0.00000360,-0.00001303,0.00000820,-0
 .00001030,0.00000850,-0.00001405,-0.00005318,0.00001629,0.00003907,0.0
 0000090,0.00000563,0.00000037,0.00000155,0.00000044,-0.00000439,0.0000
 0264,-0.00000414,0.00000037,0.00001623,0.00001952,0.00000139,0.0000038
 3,-0.00002913,0.00002327,-0.00000085,0.00000191,0.00000307,0.00000439,
 -0.00000868,-0.00000135,-0.00000521,0.00000379,-0.00000154,-0.00000245
 ,0.00000023,0.00000166,-0.00000011,-0.00000059,-0.00000027,-0.00000158
 ,-0.00000010,0.00000194,-0.00000111,0.00000049,-0.00000035,-0.00001704
 ,-0.00000587,0.00001089,0.00000425,-0.00000037,0.00000074,0.00003194,0
 .00003128,-0.00006299,0.00000031,-0.00000048,0.00000003,-0.00000094,0.
 00000145,-0.00000077,-0.00000017,-0.00000151,0.00000031,0.00000040,-0.
 00000010,0.00000003,0.00000352,0.00000048,-0.00001759,-0.00000198,-0.0
 0000182,0.00000568,-0.00000018,-0.00000092,0.00000110,0.00000104,0.000
 00252,0.00000144,-0.00000027,-0.00000214,-0.00000071,0.00000011,-0.000
 00045,0.00000045,0.00036605,0.00009249,0.00007019,0.00046393,-0.000748
 08,-0.00008755,0.00068320,0.00624152,-0.00504982,-0.00024169,0.0019988
 7,-0.00086211,-0.00179616,0.00162744,-0.00270870,0.00176060,0.01794795
 ,-0.00957343,-0.05358850,-0.02721370,0.01975345,-0.00115490,0.00095677
 ,-0.00035544,0.00003762,0.00031060,-0.00008077,-0.00005543,0.00070865,
 -0.00021771,-0.00008226,0.00055984,-0.00019316,0.00002970,-0.00021379,
 -0.00034200,0.00121452,0.00028068,0.00065732,-0.00227113,-0.02475456,0
 .01690732,0.05456877,0.00002142,-0.00000611,-0.00001457,0.00000034,0.0
 0000044,0.00000138,-0.00003216,0.00003932,-0.00002017,0.00002838,-0.00
 001471,0.00003603,0.00017122,-0.00002360,-0.00001174,-0.00000441,-0.00
 001314,-0.00000329,-0.00000792,0.00001423,0.00001214,-0.00000736,-0.00
 002784,-0.00000061,0.00000274,0.00001076,0.00000828,-0.00004145,-0.000
 03910,0.00005530,0.00000322,-0.00000752,-0.00001128,-0.00003190,-0.000
 03348,0.00000276,0.00001841,-0.00001455,0.00000299,0.00000737,-0.00000
 268,-0.00000363,0.00000080,0.00000190,0.00000119,0.00000067,0.00000161
 ,-0.00000397,0.00000362,-0.00000065,0.00000196,0.00001868,0.00001163,-
 0.00001790,0.00004336,-0.00000310,-0.00000784,-0.00002076,-0.00003508,
 -0.00002486,-0.00000058,0.00000179,0.00000039,0.00000327,-0.00000502,0
 .00000357,0.00000018,0.00000337,-0.00000113,-0.00000087,-0.00000061,0.
 00000067,-0.00000117,0.00004718,0.00005313,0.00000161,0.00001030,-0.00
 000726,0.00002424,-0.00000397,-0.00001670,-0.00000299,-0.00000926,-0.0
 0000355,0.00000063,0.00000397,0.00000154,-0.00000030,0.00000382,0.0000
 0028,-0.00054422,-0.00067334,0.00056794,-0.00058775,-0.00032282,0.0000
 6852,0.00239142,-0.02375900,0.01127743,-0.00015511,-0.00302983,-0.0032
 8661,-0.00064327,-0.00029625,-0.00138793,-0.00016450,0.00322862,-0.001
 23495,-0.02334763,-0.23113246,0.12062554,0.00128478,0.00055571,-0.0002
 3135,-0.00014156,-0.00081765,0.00070732,0.00003880,0.00015198,0.000147
 35,0.00004437,-0.00001012,0.00019352,0.00049085,-0.00031356,0.00031121
 ,0.00043979,0.00039749,0.00003198,-0.00109289,-0.00078614,0.00216774,0
 .02225518,0.25745611,-0.00000594,0.00000260,0.00000418,-0.00000036,-0.
 00000012,-0.00000024,-0.00000365,-0.00001108,-0.00000278,0.00000529,0.
 00000864,-0.00000051,0.00001252,0.00003454,0.00006541,0.00000097,0.000
 00374,0.00000106,0.00000050,-0.00000580,-0.00000262,0.00000260,0.00001
 667,0.00000370,-0.00002462,-0.00001423,0.00000034,0.00004767,0.0000377
 3,0.00000771,-0.00000066,0.00000235,0.00000215,-0.00000553,0.00000924,
 -0.00000245,-0.00000252,0.00000158,-0.00000059,-0.00000183,0.00000070,
 0.00000087,-0.00000003,-0.00000040,-0.00000041,0.00000039,-0.00000079,
 0.00000059,0.00000037,0.00000011,-0.00000113,-0.00000615,0.00000052,0.
 00000811,0.00000120,0.00000284,-0.00000546,-0.00007386,0.00000779,-0.0
 0001513,0.00000049,-0.00000026,0.00000005,-0.00000072,0.00000125,-0.00
 000070,-0.00000014,-0.00000100,-0.00000002,0.00000016,0.00000045,0.000
 00017,-0.00000751,-0.00000960,0.00001233,0.00000528,-0.00000090,-0.000
 00160,-0.00000154,0.00000189,0.00000204,0.00000051,0.00000146,0.000000
 46,-0.00000022,-0.00000098,-0.00000004,0.00000010,-0.00000063,0.000000
 05,-0.00025454,-0.00015173,0.00012118,-0.00008105,0.00009326,0.0000579
 4,0.00036963,-0.02092872,0.01335963,-0.00025968,-0.00380061,-0.0024427
 2,-0.00319230,-0.00067986,-0.00269518,0.00386183,0.01945670,-0.0098579
 2,0.01649831,0.12708763,-0.13133775,0.00048875,-0.00032689,0.00032520,
 0.00003341,-0.00049076,0.00064026,0.00001658,0.00110144,-0.00022644,0.
 00008355,0.00030524,-0.00006351,-0.00014440,-0.00021787,-0.00050215,0.
 00042813,-0.00063996,0.00150146,0.00077252,0.00889454,-0.00518229,-0.0
 1790484,-0.13009352,0.13641928,-0.00001274,0.00000950,0.00001213,-0.00
 000327,0.00000053,-0.00000061,0.00000703,-0.00002270,0.00000050,0.0000
 1216,0.00001598,-0.00000874,-0.00006296,0.00003574,0.00004448,0.000003
 91,0.00000789,0.00000337,-0.00000513,-0.00001952,-0.00000221,0.0000168
 8,0.00008030,0.00004881,-0.00007367,-0.00009243,-0.00009539,0.00006723
 ,0.00004104,-0.00012221,-0.00000080,0.00000486,0.00000909,-0.00003487,
 -0.00009766,0.00006500,-0.00001078,0.00000549,-0.00000442,-0.00000469,
 0.00000172,0.00000173,0.00000002,-0.00000094,-0.00000002,-0.00000258,-
 0.00000546,0.00000476,0.00002100,-0.00000069,-0.00000572,-0.00004708,-
 0.00002120,0.00003857,-0.00010784,0.00001100,0.00003667,0.00013808,-0.
 00003260,0.00001768,0.00000051,-0.00000088,-0.00000026,-0.00000207,0.0
 0000337,-0.00000257,-0.00000009,-0.00000133,-0.00000024,-0.00000103,0.
 00000559,0.00000399,-0.00011817,0.00009988,0.00001752,-0.00000865,-0.0
 0000272,0.00000494,0.00007008,0.00000540,-0.00000615,0.00000393,0.0000
 0325,0.00000378,0.00000092,-0.00000106,-0.00000291,-0.00000096,0.00000
 170,0.00000287,-0.00012923,0.00146522,-0.00108832,-0.00037823,-0.00009
 272,0.00003996,-0.24899843,-0.05787993,-0.22374021,-0.00490734,-0.0032
 7078,0.00285012,0.00064092,0.00043694,0.00137254,0.00054886,0.00156200
 ,0.00128451,0.00491716,0.00434157,0.01299423,0.00093188,-0.00221808,0.
 00243333,-0.00024558,0.00080576,-0.00089881,-0.00007134,-0.00008475,-0
 .00001380,0.00001022,0.00004541,0.00004140,0.00045280,-0.00004837,0.00
 025798,0.00023974,0.00010372,0.00024379,0.00113452,-0.00009005,0.00027
 999,0.00007321,-0.00047223,-0.00063685,0.24594168,0.00000159,0.0000002
 2,-0.00000188,-0.00000015,0.00000017,0.00000055,-0.00000559,0.00001672
 ,-0.00000887,0.00001072,-0.00001219,0.00001788,0.00004536,0.00000920,-
 0.00003626,-0.00000082,-0.00000751,-0.00000163,-0.00000019,-0.00000086
 ,0.00000401,-0.00000631,0.00000528,-0.00001054,-0.00003193,-0.00001802
 ,0.00003149,-0.00000625,0.00004522,-0.00000844,0.00000108,-0.00000252,
 -0.00000340,0.00002029,0.00000994,-0.00003416,0.00000670,-0.00000398,0
 .00000088,0.00000300,-0.00000045,-0.00000176,-0.00000032,0.00000064,0.
 00000047,0.00000282,0.00000085,-0.00000107,-0.00000261,-0.00000002,0.0
 0000093,0.00001817,-0.00000083,-0.00000683,0.00000121,-0.00000110,-0.0
 0000201,-0.00001198,-0.00007511,0.00001183,-0.00000062,0.00000054,-0.0
 0000028,0.00000117,-0.00000150,0.00000098,0.00000062,0.00000149,-0.000
 00022,-0.00000072,-0.00000050,-0.00000087,-0.00001824,0.00000963,0.000
 02715,-0.00000374,-0.00000110,0.00000012,-0.00000760,-0.00000257,0.000
 00316,-0.00000175,-0.00000318,-0.00000206,0.00000021,0.00000208,0.0000
 0204,0.00000067,0.00000025,-0.00000161,-0.00018867,0.00096939,-0.00062
 581,-0.00098896,-0.00029320,-0.00136990,-0.05512211,-0.07629960,-0.060
 08367,0.02185898,0.00664114,0.02105550,-0.00001438,-0.00404967,0.00326
 169,0.00214888,-0.00498734,-0.00364747,-0.02483636,-0.00406287,-0.0182
 5587,0.00136903,-0.00109016,0.00312500,0.00028810,-0.00066342,0.000003
 24,0.00010534,0.00020085,0.00021388,0.00056853,0.00054981,0.00094204,-
 0.00113756,0.00037849,-0.00135745,0.00007254,0.00000356,0.00022889,0.0
 0056476,0.00123767,0.00047614,-0.00011045,-0.00056356,0.00035046,0.055
 43363,0.08211126,0.00002361,-0.00001481,-0.00001801,0.00000266,0.00000
 100,0.00000125,-0.00002808,0.00003273,-0.00000107,-0.00000337,-0.00000
 033,0.00000993,0.00009020,-0.00004571,0.00001288,-0.00000438,-0.000010
 30,-0.00000631,0.00000341,0.00002814,0.00000592,-0.00001261,-0.0000763
 0,-0.00003312,0.00002920,0.00011758,0.00006921,0.00003682,-0.00006774,
 0.00018183,0.00000307,-0.00001040,-0.00000806,-0.00001584,0.00003880,-
 0.00004339,0.00001241,-0.00001056,0.00000329,0.00000623,-0.00000389,-0
 .00000190,-0.00000038,0.00000223,0.00000147,0.00000213,0.00000196,-0.0
 0000266,-0.00001157,-0.00000203,0.00000338,0.00003930,0.00002242,-0.00
 004010,0.00013046,-0.00000706,-0.00003885,-0.00020455,0.00006350,-0.00
 012287,-0.00000081,0.00000154,-0.00000071,0.00000304,-0.00000408,0.000
 00342,0.00000055,0.00000332,-0.00000088,-0.00000226,-0.00000573,-0.000
 00319,-0.00005160,0.00001455,0.00010274,0.00001128,0.00001328,-0.00000
 745,-0.00001898,-0.00000908,-0.00001567,-0.00000218,-0.00000818,-0.000
 00388,0.00000065,0.00000382,0.00000220,0.00000113,0.00000300,-0.000002
 18,-0.00035914,-0.00224889,0.00183316,0.00019927,-0.00263772,0.0022648
 1,-0.16953025,-0.04720742,-0.18046774,-0.01644587,-0.00225356,-0.01774
 824,-0.00072768,0.00133122,-0.00305586,0.00054793,-0.00134010,-0.00254
 259,-0.01294378,-0.00469063,-0.01236075,-0.00290793,0.00193857,-0.0020
 1310,-0.00001372,0.00001831,-0.00051825,-0.00017709,-0.00006675,-0.000
 53107,-0.00052416,-0.00010069,-0.00053242,-0.00076309,-0.00010806,-0.0
 0021842,-0.00027449,-0.00008666,-0.00007614,-0.00068252,0.00160502,0.0
 0128311,0.00001995,0.00005328,-0.00025196,0.20443400,0.05568176,0.2148
 8448,0.00000387,-0.00000059,-0.00000289,-0.00000009,0.00000004,0.00000
 010,-0.00000463,0.00000472,-0.00000388,0.00000099,-0.00000535,0.000008
 06,0.00003439,-0.00001149,-0.00000185,-0.00000060,-0.00000264,-0.00000
 157,-0.00000023,0.00000179,0.00000279,0.00000100,-0.00000341,-0.000000
 54,-0.00000305,-0.00000258,0.00000383,-0.00000877,-0.00000164,0.000005
 09,-0.00000079,0.00000077,-0.00000247,-0.00001077,-0.00000083,-0.00000
 035,0.00000282,-0.00000253,0.00000114,0.00000107,0.00000061,-0.0000003
 4,0.00000023,0.00000058,0.00000032,-0.00000137,0.00000070,-0.00000080,
 -0.00000008,-0.00000031,0.00000035,0.00000543,0.00000213,-0.00000448,0
 .00000435,-0.00000017,-0.00000077,-0.00000851,-0.00000193,-0.00000142,
 -0.00000014,0.00000015,-0.00000009,0.00000109,-0.00000176,0.00000051,0
 .00000006,0.00000040,-0.00000047,-0.00000122,0.00000013,0.00000044,0.0
 0000560,-0.00000049,0.00001269,0.00000148,0.00000211,-0.00000229,0.000
 00413,-0.00000073,-0.00000263,-0.00000052,-0.00000118,-0.00000034,0.00
 000019,0.00000065,-0.00000006,0.00000005,0.00000109,-0.00000004,-0.424
 11163,-0.18369888,0.07100282,-0.00396027,0.00352026,-0.00253318,0.0003
 3869,0.00063116,-0.00045455,0.00224415,0.00035558,-0.00096919,-0.00009
 225,0.00019497,-0.00006421,0.00010443,0.00004669,0.00003587,0.00001599
 ,-0.00018331,-0.00000528,0.00799198,-0.00529859,0.00532486,0.00016325,
 0.00048060,-0.00015426,0.00008751,0.00003774,-0.00004079,-0.00002624,0
 .00003639,-0.00015817,-0.00000224,0.00002180,0.00000538,0.00000135,0.0
 0004170,-0.00000970,-0.00003992,-0.00005934,-0.00000989,0.00001571,0.0
 0000565,-0.00002185,-0.00000524,-0.00002607,0.00010901,0.41724879,0.00
 000353,-0.00000119,-0.00000284,0.00000017,0.00000006,0.00000019,-0.000
 00741,0.00001341,-0.00000490,0.00000389,-0.00000447,0.00001266,0.00002
 811,-0.00000307,-0.00001489,-0.00000086,-0.00000535,-0.00000103,-0.000
 00094,0.00000271,0.00000367,-0.00000148,-0.00000195,-0.00000154,-0.000
 00055,-0.00000847,0.00000448,-0.00001610,0.00000652,-0.00000478,0.0000
 0079,-0.00000120,-0.00000375,-0.00001537,0.00000419,-0.00000265,0.0000
 0590,-0.00000453,0.00000044,0.00000231,-0.00000013,-0.00000114,-0.0000
 0024,0.00000048,0.00000026,0.00000018,0.00000068,-0.00000099,0.0000002
 7,-0.00000018,0.00000037,0.00000516,0.00000209,-0.00000358,0.00000057,
 -0.00000014,0.00000010,0.00000443,-0.00002254,0.00001425,-0.00000112,0
 .,-0.00000014,0.00000153,-0.00000184,0.00000077,-0.00000046,0.00000232
 ,0.00000016,-0.00000090,-0.00000010,-0.00000002,0.00001279,-0.00000816
 ,0.00002465,0.00000078,0.00000119,-0.00000359,0.00000308,-0.00000031,-
 0.00000313,-0.00000068,-0.00000254,-0.00000148,-0.00000041,0.00000209,
 0.00000117,-0.00000002,0.00000076,-0.00000015,-0.14824034,-0.10364239,
 0.04421100,0.00112559,0.00415340,-0.00792853,-0.00100967,-0.00060022,0
 .00107570,0.00328757,-0.00083760,0.00394941,0.00055667,0.00011133,0.00
 002626,0.00004690,0.00002202,0.00002469,-0.00013151,0.00018710,0.00013
 858,-0.03897704,-0.02395455,0.01497898,-0.00065859,0.00038236,-0.00000
 638,0.00006738,0.00008978,0.00001889,-0.00006002,-0.00007528,-0.000186
 11,-0.00001175,0.00002583,-0.00000822,0.00000703,0.00003463,0.00000104
 ,0.00008880,-0.00006364,-0.00011391,0.00003806,0.00000490,-0.00004767,
 -0.00007140,-0.00005316,0.00004069,0.18391537,0.12424514,-0.00000572,0
 .00000022,0.00000321,0.00000041,0.00000008,-0.00000005,0.00000896,-0.0
 0000974,0.00000931,-0.00000950,0.00000795,-0.00001358,-0.00006130,0.00
 000760,0.00000970,0.00000108,0.00000420,0.00000050,0.00000270,-0.00000
 170,-0.00000389,0.00000286,0.00000205,0.00000105,0.00000389,0.00000762
 ,-0.00000476,0.00001730,-0.00000360,0.00000450,-0.00000042,0.00000145,
 0.00000263,0.00000181,-0.00000817,-0.00000101,-0.00000444,0.00000415,-
 0.00000265,-0.00000209,0.00000047,0.00000130,-0.00000073,-0.00000099,-
 0.00000042,-0.00000054,-0.00000067,0.00000107,-0.00000101,0.00000006,-
 0.00000064,-0.00000464,-0.00000188,0.00000269,-0.00000127,0.00000029,-
 0.00000043,0.00001008,0.00001578,-0.00001794,-0.00000044,-0.00000087,-
 0.00000018,-0.00000116,0.00000161,-0.00000079,0.00000060,-0.00000109,0
 .00000125,0.00000031,-0.00000012,-0.00000050,0.00000082,0.00000199,-0.
 00000268,-0.00000238,-0.00000137,0.00000398,-0.00000116,0.00000058,0.0
 0000110,0.00000027,0.00000264,0.00000132,-0.00000004,-0.00000202,0.000
 00090,0.00000048,-0.00000072,-0.00000053,0.04211786,0.03739012,-0.0368
 8728,-0.00074628,-0.00753270,0.00035285,0.00080448,0.00076713,0.000011
 41,-0.00311298,0.00452125,-0.00034428,0.00067388,-0.00044811,0.0001728
 8,-0.00029506,0.00006362,0.00003595,0.00012155,-0.00007014,-0.00019282
 ,0.03309741,0.02161189,-0.00775023,-0.00070461,-0.00037940,0.00003253,
 0.00000868,0.00008433,0.00006993,0.00008399,0.00017721,0.00038731,0.00
 001458,-0.00002325,-0.00000335,0.00000366,-0.00010784,0.00003166,-0.00
 000799,0.00003572,0.00007266,-0.00003063,0.00004943,0.00005941,0.00008
 167,0.00002197,0.00000372,-0.07206492,-0.05618701,0.04395320\\0.000003
 46,-0.00000069,0.00000365,-0.00000032,0.00000049,-0.00000168,0.0000005
 0,0.00000091,-0.00001210,0.00000518,-0.00000478,0.00001062,-0.00000475
 ,0.00000599,0.00000021,-0.00000092,-0.00000158,0.00000130,-0.00000315,
 0.00000095,0.00000145,0.00000096,-0.00000156,-0.00000135,-0.00000158,-
 0.00000362,-0.00000464,0.00000242,-0.00000248,0.00000323,-0.00000209,-
 0.00000023,-0.00000041,0.00000135,0.00000384,0.00000063,0.00000124,0.0
 0000200,0.00000018,0.00000080,0.00000028,-0.00000223,-0.00000191,-0.00
 000046,0.00000092,0.00000121,-0.00000056,0.00000079,0.00000099,-0.0000
 0046,0.00000063,0.00000143,-0.00000012,0.00000110,-0.00000187,-0.00000
 125,0.00000076,-0.00000079,0.00000074,0.00000196,-0.00000192,-0.000001
 85,-0.00000014,-0.00000192,-0.00000126,-0.00000251,-0.00000063,-0.0000
 0218,0.00000003,0.00000059,0.00000002,-0.00000001,-0.00000146,0.000001
 50,-0.00000075,0.00000064,0.00000234,0.00000076,0.00000080,0.00000172,
 0.00000004,-0.00000135,-0.00000049,-0.00000200,-0.00000172,0.00000043,
 -0.00000096,0.00000004,-0.00000078,-0.00000141,0.00000031,-0.00000210,
 0.00000008,-0.00000008,0.00000023,-0.00000786,0.00000603,-0.00000335,-
 0.00001399,-0.00000274,0.00000526,0.00001326,0.00000795,-0.00000346,0.
 00000128,-0.00000097,-0.00000155,0.00000249,0.00000658,-0.00000381,0.0
 0000346,0.00000160,0.00001153,0.00000259,-0.00000261,0.00000261,0.0000
 0049,-0.00000061,-0.00000028,0.00000036,-0.00000286,0.00000008,-0.0000
 0149,0.00000236,-0.00000068,0.00000155,0.00000016,0.00000005,0.0000015
 8,-0.00000324,0.00000013,0.00000174,-0.00000120,0.00000007,0.00000195,
 -0.00000488,-0.00000068,-0.00000170,-0.00000102,-0.00000090,-0.0000038
 5\\\@


 NATURE WILL TELL YOU A DIRECT LIE IF SHE CAN.

                                -- CHARLES DARWIN
 Job cpu time:       1 days  8 hours 59 minutes  9.0 seconds.
 Elapsed time:       0 days  0 hours 49 minutes 42.1 seconds.
 File lengths (MBytes):  RWF=   2298 Int=      0 D2E=      0 Chk=     48 Scr=      1
 Normal termination of Gaussian 16 at Fri Dec 25 16:39:05 2020.
