 Entering Gaussian System, Link 0=g16
 Input=Tem_Prop_2.gjf
 Output=Tem_Prop_2.log
 Initial command:
 /share/apps/g16/l1.exe "/backup/31504.cluster.hpc/Gau-101285.inp" -scrdir="/backup/31504.cluster.hpc/"
 Entering Link 1 = /share/apps/g16/l1.exe PID=    101286.
  
 Copyright (c) 1988,1990,1992,1993,1995,1998,2003,2009,2016,
            Gaussian, Inc.  All Rights Reserved.
  
 This is part of the Gaussian(R) 16 program.  It is based on
 the Gaussian(R) 09 system (copyright 2009, Gaussian, Inc.),
 the Gaussian(R) 03 system (copyright 2003, Gaussian, Inc.),
 the Gaussian(R) 98 system (copyright 1998, Gaussian, Inc.),
 the Gaussian(R) 94 system (copyright 1995, Gaussian, Inc.),
 the Gaussian 92(TM) system (copyright 1992, Gaussian, Inc.),
 the Gaussian 90(TM) system (copyright 1990, Gaussian, Inc.),
 the Gaussian 88(TM) system (copyright 1988, Gaussian, Inc.),
 the Gaussian 86(TM) system (copyright 1986, Carnegie Mellon
 University), and the Gaussian 82(TM) system (copyright 1983,
 Carnegie Mellon University). Gaussian is a federally registered
 trademark of Gaussian, Inc.
  
 This software contains proprietary and confidential information,
 including trade secrets, belonging to Gaussian, Inc.
  
 This software is provided under written license and may be
 used, copied, transmitted, or stored only in accord with that
 written license.
  
 The following legend is applicable only to US Government
 contracts under FAR:
  
                    RESTRICTED RIGHTS LEGEND
  
 Use, reproduction and disclosure by the US Government is
 subject to restrictions as set forth in subparagraphs (a)
 and (c) of the Commercial Computer Software - Restricted
 Rights clause in FAR 52.227-19.
  
 Gaussian, Inc.
 340 Quinnipiac St., Bldg. 40, Wallingford CT 06492
  
  
 ---------------------------------------------------------------
 Warning -- This program may not be used in any manner that
 competes with the business of Gaussian, Inc. or will provide
 assistance to any competitor of Gaussian, Inc.  The licensee
 of this program is prohibited from giving any competitor of
 Gaussian, Inc. access to this program.  By using this program,
 the user acknowledges that Gaussian, Inc. is engaged in the
 business of creating and licensing software in the field of
 computational chemistry and represents and warrants to the
 licensee that it is not a competitor of Gaussian, Inc. and that
 it will not use this program in any manner prohibited above.
 ---------------------------------------------------------------
  

 Cite this work as:
 Gaussian 16, Revision A.03,
 M. J. Frisch, G. W. Trucks, H. B. Schlegel, G. E. Scuseria, 
 M. A. Robb, J. R. Cheeseman, G. Scalmani, V. Barone, 
 G. A. Petersson, H. Nakatsuji, X. Li, M. Caricato, A. V. Marenich, 
 J. Bloino, B. G. Janesko, R. Gomperts, B. Mennucci, H. P. Hratchian, 
 J. V. Ortiz, A. F. Izmaylov, J. L. Sonnenberg, D. Williams-Young, 
 F. Ding, F. Lipparini, F. Egidi, J. Goings, B. Peng, A. Petrone, 
 T. Henderson, D. Ranasinghe, V. G. Zakrzewski, J. Gao, N. Rega, 
 G. Zheng, W. Liang, M. Hada, M. Ehara, K. Toyota, R. Fukuda, 
 J. Hasegawa, M. Ishida, T. Nakajima, Y. Honda, O. Kitao, H. Nakai, 
 T. Vreven, K. Throssell, J. A. Montgomery, Jr., J. E. Peralta, 
 F. Ogliaro, M. J. Bearpark, J. J. Heyd, E. N. Brothers, K. N. Kudin, 
 V. N. Staroverov, T. A. Keith, R. Kobayashi, J. Normand, 
 K. Raghavachari, A. P. Rendell, J. C. Burant, S. S. Iyengar, 
 J. Tomasi, M. Cossi, J. M. Millam, M. Klene, C. Adamo, R. Cammi, 
 J. W. Ochterski, R. L. Martin, K. Morokuma, O. Farkas, 
 J. B. Foresman, and D. J. Fox, Gaussian, Inc., Wallingford CT, 2016.
 
 ******************************************
 Gaussian 16:  ES64L-G16RevA.03 25-Dec-2016
                22-Dec-2020 
 ******************************************
 %mem=2GB
 %nprocshared=32
 Will use up to   32 processors via shared memory.
 %chk=Tem_Prop_2.chk
 -----------------------------------------------------
 # scrf=(solvent=water,pcm) opt freq m062x/6-311g(d,p)
 -----------------------------------------------------
 1/18=20,19=15,26=3,38=1/1,3;
 2/9=110,12=2,17=6,18=5,40=1/2;
 3/5=4,6=6,7=101,11=2,25=1,30=1,70=2201,71=1,72=1,74=-55/1,2,3;
 4//1;
 5/5=2,38=5,53=1/2;
 6/7=2,8=2,9=2,10=2,28=1/1;
 7//1,2,3,16;
 1/18=20,19=15,26=3/3(2);
 2/9=110/2;
 99//99;
 2/9=110/2;
 3/5=4,6=6,7=101,11=2,25=1,30=1,70=2205,71=1,72=1,74=-55/1,2,3;
 4/5=5,16=3,69=1/1;
 5/5=2,38=5,53=1/2;
 7//1,2,3,16;
 1/18=20,19=15,26=3/3(-5);
 2/9=110/2;
 6/7=2,8=2,9=2,10=2,19=2,28=1/1;
 99/9=1/99;
 -------------------
 Title Card Required
 -------------------
 Symbolic Z-matrix:
 Charge =  0 Multiplicity = 2
 O                    0     16.3358   25.06979   22.68613  L 
 H                    0     16.7948   25.38079   23.48613  L 
 C                    0     15.3718   21.63679   24.08513  L 
 N                    0     14.8178   21.12679   22.78813  L 
 O                    0     14.3858   19.89379   22.77513  L 
 C                    0     15.5648   23.18679   23.97113  L 
 C                    0     16.2978   23.62879   22.71513  L 
 C                    0     15.5958   23.15079   21.48513  L 
 C                    0     15.3408   21.64979   21.47213  L 
 C                    0     14.2648   21.32379   20.32413  L 
 C                    0     14.3318   21.28779   25.15113  L 
 C                    0     16.6648   21.05479   21.07113  L 
 C                    0     16.6438   20.93079   24.44613  L 
 H                    0     16.0588   23.54579   24.88213  L 
 H                    0     14.5998   23.70679   24.01713  L 
 H                    0     16.1608   23.46479   20.59913  L 
 H                    0     14.6338   23.65579   21.33313  L 
 H                    0     14.5828   21.82579   19.40213  L 
 H                    0     13.2548   21.65679   20.59413  L 
 H                    0     14.2218   20.24279   20.14313  L 
 H                    0     13.3968   21.83779   24.99013  L 
 H                    0     14.6858   21.63379   26.13013  L 
 H                    0     14.0988   20.21779   25.21213  L 
 H                    0     17.2998   23.18679   22.77613  L 
 H                    0     16.5168   19.96779   21.07813  L 
 H                    0     16.8728   21.33379   20.03013  L 
 H                    0     17.6088   21.19279   21.61213  L 
 H                    0     16.8458   21.14079   25.50313  L 
 H                    0     16.4808   19.84979   24.34613  L 
 H                    0     17.5078   21.17479   23.81513  L 
 O                    0     16.7206   16.21711   23.88437  H 
 O                    0     16.14651   18.05428   22.66333  H 
 N                    0     13.52967   17.45026   22.74937  H 
 C                    0     14.43652   16.53406   23.44045  H 
 C                    0     14.24054   15.1783   22.77059  H 
 C                    0     13.31063   15.4453   21.59289  H 
 C                    0     13.38287   16.94446   21.38836  H 
 C                    0     15.83573   17.04063   23.27108  H 
 H                    0     14.20168   16.51018   24.50945  H 
 H                    0     13.77643   14.45896   23.4546  H 
 H                    0     15.1787   14.74043   22.41158  H 
 H                    0     13.6062   14.88815   20.69886  H 
 H                    0     12.2882   15.14575   21.85475  H 
 H                    0     14.25004   17.21358   20.7745  H 
 H                    0     12.48249   17.33646   20.90725  H 
 H                    0     13.86626   18.41095   22.75949  H 
 H                    0     17.64444   16.53101   23.78294  H 
 
 Add virtual bond connecting atoms H46        and O5         Dist= 2.97D+00.

 GradGradGradGradGradGradGradGradGradGradGradGradGradGradGradGradGradGrad
 Berny optimization.
 Initialization pass.
                           ----------------------------
                           !    Initial Parameters    !
                           ! (Angstroms and Degrees)  !
 --------------------------                            --------------------------
 ! Name  Definition              Value          Derivative Info.                !
 --------------------------------------------------------------------------------
 ! R1    R(1,2)                  0.9733         estimate D2E/DX2                !
 ! R2    R(1,7)                  1.4418         estimate D2E/DX2                !
 ! R3    R(3,4)                  1.4997         estimate D2E/DX2                !
 ! R4    R(3,6)                  1.5661         estimate D2E/DX2                !
 ! R5    R(3,11)                 1.5296         estimate D2E/DX2                !
 ! R6    R(3,13)                 1.4989         estimate D2E/DX2                !
 ! R7    R(4,5)                  1.3066         estimate D2E/DX2                !
 ! R8    R(4,9)                  1.5096         estimate D2E/DX2                !
 ! R9    R(5,46)                 1.5713         estimate D2E/DX2                !
 ! R10   R(6,7)                  1.5199         estimate D2E/DX2                !
 ! R11   R(6,14)                 1.0967         estimate D2E/DX2                !
 ! R12   R(6,15)                 1.0972         estimate D2E/DX2                !
 ! R13   R(7,8)                  1.4947         estimate D2E/DX2                !
 ! R14   R(7,24)                 1.0969         estimate D2E/DX2                !
 ! R15   R(8,9)                  1.5226         estimate D2E/DX2                !
 ! R16   R(8,16)                 1.0967         estimate D2E/DX2                !
 ! R17   R(8,17)                 1.0971         estimate D2E/DX2                !
 ! R18   R(9,10)                 1.6068         estimate D2E/DX2                !
 ! R19   R(9,12)                 1.5059         estimate D2E/DX2                !
 ! R20   R(10,18)                1.0969         estimate D2E/DX2                !
 ! R21   R(10,19)                1.0972         estimate D2E/DX2                !
 ! R22   R(10,20)                1.0969         estimate D2E/DX2                !
 ! R23   R(11,21)                1.0967         estimate D2E/DX2                !
 ! R24   R(11,22)                1.097          estimate D2E/DX2                !
 ! R25   R(11,23)                1.0968         estimate D2E/DX2                !
 ! R26   R(12,25)                1.0971         estimate D2E/DX2                !
 ! R27   R(12,26)                1.0976         estimate D2E/DX2                !
 ! R28   R(12,27)                1.0968         estimate D2E/DX2                !
 ! R29   R(13,28)                1.0964         estimate D2E/DX2                !
 ! R30   R(13,29)                1.0978         estimate D2E/DX2                !
 ! R31   R(13,30)                1.0974         estimate D2E/DX2                !
 ! R32   R(31,38)                1.3555         estimate D2E/DX2                !
 ! R33   R(31,47)                0.981          estimate D2E/DX2                !
 ! R34   R(32,38)                1.2221         estimate D2E/DX2                !
 ! R35   R(33,34)                1.4627         estimate D2E/DX2                !
 ! R36   R(33,37)                1.4594         estimate D2E/DX2                !
 ! R37   R(33,46)                1.018          estimate D2E/DX2                !
 ! R38   R(34,35)                1.5249         estimate D2E/DX2                !
 ! R39   R(34,38)                1.4977         estimate D2E/DX2                !
 ! R40   R(34,39)                1.0947         estimate D2E/DX2                !
 ! R41   R(35,36)                1.5241         estimate D2E/DX2                !
 ! R42   R(35,40)                1.0958         estimate D2E/DX2                !
 ! R43   R(35,41)                1.0958         estimate D2E/DX2                !
 ! R44   R(36,37)                1.5148         estimate D2E/DX2                !
 ! R45   R(36,42)                1.0941         estimate D2E/DX2                !
 ! R46   R(36,43)                1.0971         estimate D2E/DX2                !
 ! R47   R(37,44)                1.096          estimate D2E/DX2                !
 ! R48   R(37,45)                1.0935         estimate D2E/DX2                !
 ! A1    A(2,1,7)              108.3752         estimate D2E/DX2                !
 ! A2    A(4,3,6)              108.6102         estimate D2E/DX2                !
 ! A3    A(4,3,11)             105.8994         estimate D2E/DX2                !
 ! A4    A(4,3,13)             111.1978         estimate D2E/DX2                !
 ! A5    A(6,3,11)             111.1203         estimate D2E/DX2                !
 ! A6    A(6,3,13)             112.2786         estimate D2E/DX2                !
 ! A7    A(11,3,13)            107.5579         estimate D2E/DX2                !
 ! A8    A(3,4,5)              116.8501         estimate D2E/DX2                !
 ! A9    A(3,4,9)              120.5383         estimate D2E/DX2                !
 ! A10   A(5,4,9)              115.6467         estimate D2E/DX2                !
 ! A11   A(3,6,7)              114.041          estimate D2E/DX2                !
 ! A12   A(3,6,14)             108.6029         estimate D2E/DX2                !
 ! A13   A(3,6,15)             110.9549         estimate D2E/DX2                !
 ! A14   A(7,6,14)             111.9621         estimate D2E/DX2                !
 ! A15   A(7,6,15)             108.7228         estimate D2E/DX2                !
 ! A16   A(14,6,15)            101.9            estimate D2E/DX2                !
 ! A17   A(1,7,6)              108.6614         estimate D2E/DX2                !
 ! A18   A(1,7,8)              108.3876         estimate D2E/DX2                !
 ! A19   A(1,7,24)             112.3207         estimate D2E/DX2                !
 ! A20   A(6,7,8)              111.1317         estimate D2E/DX2                !
 ! A21   A(6,7,24)             106.1058         estimate D2E/DX2                !
 ! A22   A(8,7,24)             110.2389         estimate D2E/DX2                !
 ! A23   A(7,8,9)              113.6374         estimate D2E/DX2                !
 ! A24   A(7,8,16)             109.3461         estimate D2E/DX2                !
 ! A25   A(7,8,17)             112.2492         estimate D2E/DX2                !
 ! A26   A(9,8,16)             111.2006         estimate D2E/DX2                !
 ! A27   A(9,8,17)             107.8035         estimate D2E/DX2                !
 ! A28   A(16,8,17)            102.0063         estimate D2E/DX2                !
 ! A29   A(4,9,8)              113.0866         estimate D2E/DX2                !
 ! A30   A(4,9,10)             108.6952         estimate D2E/DX2                !
 ! A31   A(4,9,12)             113.5683         estimate D2E/DX2                !
 ! A32   A(8,9,10)             108.5577         estimate D2E/DX2                !
 ! A33   A(8,9,12)             104.1544         estimate D2E/DX2                !
 ! A34   A(10,9,12)            108.5623         estimate D2E/DX2                !
 ! A35   A(9,10,18)            108.2727         estimate D2E/DX2                !
 ! A36   A(9,10,19)            112.2732         estimate D2E/DX2                !
 ! A37   A(9,10,20)            110.1259         estimate D2E/DX2                !
 ! A38   A(18,10,19)           109.5606         estimate D2E/DX2                !
 ! A39   A(18,10,20)           108.8859         estimate D2E/DX2                !
 ! A40   A(19,10,20)           107.675          estimate D2E/DX2                !
 ! A41   A(3,11,21)            111.281          estimate D2E/DX2                !
 ! A42   A(3,11,22)            109.303          estimate D2E/DX2                !
 ! A43   A(3,11,23)            113.9407         estimate D2E/DX2                !
 ! A44   A(21,11,22)           104.3567         estimate D2E/DX2                !
 ! A45   A(21,11,23)           108.4407         estimate D2E/DX2                !
 ! A46   A(22,11,23)           109.0636         estimate D2E/DX2                !
 ! A47   A(9,12,25)            105.7344         estimate D2E/DX2                !
 ! A48   A(9,12,26)            108.5856         estimate D2E/DX2                !
 ! A49   A(9,12,27)            125.1473         estimate D2E/DX2                !
 ! A50   A(25,12,26)           106.4675         estimate D2E/DX2                !
 ! A51   A(25,12,27)           103.7475         estimate D2E/DX2                !
 ! A52   A(26,12,27)           105.8272         estimate D2E/DX2                !
 ! A53   A(3,13,28)            107.3563         estimate D2E/DX2                !
 ! A54   A(3,13,29)            108.413          estimate D2E/DX2                !
 ! A55   A(3,13,30)            115.1466         estimate D2E/DX2                !
 ! A56   A(28,13,29)           107.6845         estimate D2E/DX2                !
 ! A57   A(28,13,30)           111.512          estimate D2E/DX2                !
 ! A58   A(29,13,30)           106.4679         estimate D2E/DX2                !
 ! A59   A(38,31,47)           111.9379         estimate D2E/DX2                !
 ! A60   A(34,33,37)           106.613          estimate D2E/DX2                !
 ! A61   A(34,33,46)           112.4223         estimate D2E/DX2                !
 ! A62   A(37,33,46)           111.692          estimate D2E/DX2                !
 ! A63   A(33,34,35)           105.6454         estimate D2E/DX2                !
 ! A64   A(33,34,38)           108.2962         estimate D2E/DX2                !
 ! A65   A(33,34,39)           110.0007         estimate D2E/DX2                !
 ! A66   A(35,34,38)           111.7849         estimate D2E/DX2                !
 ! A67   A(35,34,39)           112.4576         estimate D2E/DX2                !
 ! A68   A(38,34,39)           108.5545         estimate D2E/DX2                !
 ! A69   A(34,35,36)           105.1949         estimate D2E/DX2                !
 ! A70   A(34,35,40)           111.3391         estimate D2E/DX2                !
 ! A71   A(34,35,41)           112.9023         estimate D2E/DX2                !
 ! A72   A(36,35,40)           109.8115         estimate D2E/DX2                !
 ! A73   A(36,35,41)           109.8281         estimate D2E/DX2                !
 ! A74   A(40,35,41)           107.7469         estimate D2E/DX2                !
 ! A75   A(35,36,37)           104.3954         estimate D2E/DX2                !
 ! A76   A(35,36,42)           112.1706         estimate D2E/DX2                !
 ! A77   A(35,36,43)           109.653          estimate D2E/DX2                !
 ! A78   A(37,36,42)           112.3813         estimate D2E/DX2                !
 ! A79   A(37,36,43)           110.2975         estimate D2E/DX2                !
 ! A80   A(42,36,43)           107.924          estimate D2E/DX2                !
 ! A81   A(33,37,36)           102.8201         estimate D2E/DX2                !
 ! A82   A(33,37,44)           110.9558         estimate D2E/DX2                !
 ! A83   A(33,37,45)           111.647          estimate D2E/DX2                !
 ! A84   A(36,37,44)           110.8776         estimate D2E/DX2                !
 ! A85   A(36,37,45)           112.0192         estimate D2E/DX2                !
 ! A86   A(44,37,45)           108.4828         estimate D2E/DX2                !
 ! A87   A(31,38,32)           124.2588         estimate D2E/DX2                !
 ! A88   A(31,38,34)           110.6848         estimate D2E/DX2                !
 ! A89   A(32,38,34)           125.0563         estimate D2E/DX2                !
 ! A90   L(4,5,46,20,-1)       180.0            estimate D2E/DX2                !
 ! A91   L(5,46,33,31,-1)      180.0            estimate D2E/DX2                !
 ! A92   L(4,5,46,20,-2)       180.0            estimate D2E/DX2                !
 ! A93   L(5,46,33,31,-2)      180.0            estimate D2E/DX2                !
 ! D1    D(2,1,7,6)             59.2496         estimate D2E/DX2                !
 ! D2    D(2,1,7,8)           -179.8694         estimate D2E/DX2                !
 ! D3    D(2,1,7,24)           -57.8269         estimate D2E/DX2                !
 ! D4    D(6,3,4,5)           -168.9533         estimate D2E/DX2                !
 ! D5    D(6,3,4,9)             41.5163         estimate D2E/DX2                !
 ! D6    D(11,3,4,5)           -49.5306         estimate D2E/DX2                !
 ! D7    D(11,3,4,9)           160.939          estimate D2E/DX2                !
 ! D8    D(13,3,4,5)            67.0147         estimate D2E/DX2                !
 ! D9    D(13,3,4,9)           -82.5157         estimate D2E/DX2                !
 ! D10   D(4,3,6,7)            -49.0176         estimate D2E/DX2                !
 ! D11   D(4,3,6,14)          -174.6262         estimate D2E/DX2                !
 ! D12   D(4,3,6,15)            74.1579         estimate D2E/DX2                !
 ! D13   D(11,3,6,7)          -165.1185         estimate D2E/DX2                !
 ! D14   D(11,3,6,14)           69.2729         estimate D2E/DX2                !
 ! D15   D(11,3,6,15)          -41.943          estimate D2E/DX2                !
 ! D16   D(13,3,6,7)            74.3684         estimate D2E/DX2                !
 ! D17   D(13,3,6,14)          -51.2402         estimate D2E/DX2                !
 ! D18   D(13,3,6,15)         -162.4561         estimate D2E/DX2                !
 ! D19   D(4,3,11,21)          -65.5593         estimate D2E/DX2                !
 ! D20   D(4,3,11,22)          179.7085         estimate D2E/DX2                !
 ! D21   D(4,3,11,23)           57.4217         estimate D2E/DX2                !
 ! D22   D(6,3,11,21)           52.1993         estimate D2E/DX2                !
 ! D23   D(6,3,11,22)          -62.533          estimate D2E/DX2                !
 ! D24   D(6,3,11,23)          175.1803         estimate D2E/DX2                !
 ! D25   D(13,3,11,21)         175.4629         estimate D2E/DX2                !
 ! D26   D(13,3,11,22)          60.7306         estimate D2E/DX2                !
 ! D27   D(13,3,11,23)         -61.5562         estimate D2E/DX2                !
 ! D28   D(4,3,13,28)         -164.8696         estimate D2E/DX2                !
 ! D29   D(4,3,13,29)          -48.7984         estimate D2E/DX2                !
 ! D30   D(4,3,13,30)           70.3014         estimate D2E/DX2                !
 ! D31   D(6,3,13,28)           73.2064         estimate D2E/DX2                !
 ! D32   D(6,3,13,29)         -170.7224         estimate D2E/DX2                !
 ! D33   D(6,3,13,30)          -51.6226         estimate D2E/DX2                !
 ! D34   D(11,3,13,28)         -49.3448         estimate D2E/DX2                !
 ! D35   D(11,3,13,29)          66.7264         estimate D2E/DX2                !
 ! D36   D(11,3,13,30)        -174.1738         estimate D2E/DX2                !
 ! D37   D(3,4,33,34)          -43.6356         estimate D2E/DX2                !
 ! D38   D(3,4,33,37)         -163.4371         estimate D2E/DX2                !
 ! D39   D(9,4,33,34)          107.3864         estimate D2E/DX2                !
 ! D40   D(9,4,33,37)          -12.4151         estimate D2E/DX2                !
 ! D41   D(3,4,9,8)            -40.3598         estimate D2E/DX2                !
 ! D42   D(3,4,9,10)          -160.989          estimate D2E/DX2                !
 ! D43   D(3,4,9,12)            78.0624         estimate D2E/DX2                !
 ! D44   D(5,4,9,8)            169.7631         estimate D2E/DX2                !
 ! D45   D(5,4,9,10)            49.1339         estimate D2E/DX2                !
 ! D46   D(5,4,9,12)           -71.8147         estimate D2E/DX2                !
 ! D47   D(3,6,7,1)            176.3836         estimate D2E/DX2                !
 ! D48   D(3,6,7,8)             57.2082         estimate D2E/DX2                !
 ! D49   D(3,6,7,24)           -62.635          estimate D2E/DX2                !
 ! D50   D(14,6,7,1)           -59.8003         estimate D2E/DX2                !
 ! D51   D(14,6,7,8)          -178.9756         estimate D2E/DX2                !
 ! D52   D(14,6,7,24)           61.1812         estimate D2E/DX2                !
 ! D53   D(15,6,7,1)            52.004          estimate D2E/DX2                !
 ! D54   D(15,6,7,8)           -67.1714         estimate D2E/DX2                !
 ! D55   D(15,6,7,24)          172.9854         estimate D2E/DX2                !
 ! D56   D(1,7,8,9)           -173.1164         estimate D2E/DX2                !
 ! D57   D(1,7,8,16)            61.9909         estimate D2E/DX2                !
 ! D58   D(1,7,8,17)           -50.4566         estimate D2E/DX2                !
 ! D59   D(6,7,8,9)            -53.7772         estimate D2E/DX2                !
 ! D60   D(6,7,8,16)          -178.67           estimate D2E/DX2                !
 ! D61   D(6,7,8,17)            68.8826         estimate D2E/DX2                !
 ! D62   D(24,7,8,9)            63.5768         estimate D2E/DX2                !
 ! D63   D(24,7,8,16)          -61.316          estimate D2E/DX2                !
 ! D64   D(24,7,8,17)         -173.7634         estimate D2E/DX2                !
 ! D65   D(7,8,9,4)             44.5001         estimate D2E/DX2                !
 ! D66   D(7,8,9,10)           165.2075         estimate D2E/DX2                !
 ! D67   D(7,8,9,12)           -79.263          estimate D2E/DX2                !
 ! D68   D(16,8,9,4)           168.3921         estimate D2E/DX2                !
 ! D69   D(16,8,9,10)          -70.9006         estimate D2E/DX2                !
 ! D70   D(16,8,9,12)           44.6289         estimate D2E/DX2                !
 ! D71   D(17,8,9,4)           -80.575          estimate D2E/DX2                !
 ! D72   D(17,8,9,10)           40.1324         estimate D2E/DX2                !
 ! D73   D(17,8,9,12)          155.6619         estimate D2E/DX2                !
 ! D74   D(4,9,10,18)          172.2381         estimate D2E/DX2                !
 ! D75   D(4,9,10,19)           51.1569         estimate D2E/DX2                !
 ! D76   D(4,9,10,20)          -68.8122         estimate D2E/DX2                !
 ! D77   D(8,9,10,18)           48.8524         estimate D2E/DX2                !
 ! D78   D(8,9,10,19)          -72.2288         estimate D2E/DX2                !
 ! D79   D(8,9,10,20)          167.8022         estimate D2E/DX2                !
 ! D80   D(12,9,10,18)         -63.7813         estimate D2E/DX2                !
 ! D81   D(12,9,10,19)         175.1374         estimate D2E/DX2                !
 ! D82   D(12,9,10,20)          55.1684         estimate D2E/DX2                !
 ! D83   D(4,9,12,25)           55.1607         estimate D2E/DX2                !
 ! D84   D(4,9,12,26)          169.0798         estimate D2E/DX2                !
 ! D85   D(4,9,12,27)          -64.8593         estimate D2E/DX2                !
 ! D86   D(8,9,12,25)          178.6112         estimate D2E/DX2                !
 ! D87   D(8,9,12,26)          -67.4696         estimate D2E/DX2                !
 ! D88   D(8,9,12,27)           58.5913         estimate D2E/DX2                !
 ! D89   D(10,9,12,25)         -65.8625         estimate D2E/DX2                !
 ! D90   D(10,9,12,26)          48.0566         estimate D2E/DX2                !
 ! D91   D(10,9,12,27)         174.1175         estimate D2E/DX2                !
 ! D92   D(47,31,38,32)         -0.0104         estimate D2E/DX2                !
 ! D93   D(47,31,38,34)        179.8643         estimate D2E/DX2                !
 ! D94   D(37,33,34,35)        -28.8955         estimate D2E/DX2                !
 ! D95   D(37,33,34,38)         91.0069         estimate D2E/DX2                !
 ! D96   D(37,33,34,39)       -150.5029         estimate D2E/DX2                !
 ! D97   D(46,33,34,35)       -151.6046         estimate D2E/DX2                !
 ! D98   D(46,33,34,38)        -31.7023         estimate D2E/DX2                !
 ! D99   D(46,33,34,39)         86.788          estimate D2E/DX2                !
 ! D100  D(34,33,37,36)         39.8246         estimate D2E/DX2                !
 ! D101  D(34,33,37,44)        -78.7643         estimate D2E/DX2                !
 ! D102  D(34,33,37,45)        160.0891         estimate D2E/DX2                !
 ! D103  D(46,33,37,36)        162.9905         estimate D2E/DX2                !
 ! D104  D(46,33,37,44)         44.4016         estimate D2E/DX2                !
 ! D105  D(46,33,37,45)        -76.745          estimate D2E/DX2                !
 ! D106  D(33,34,35,36)          6.242          estimate D2E/DX2                !
 ! D107  D(33,34,35,40)       -112.6499         estimate D2E/DX2                !
 ! D108  D(33,34,35,41)        125.998          estimate D2E/DX2                !
 ! D109  D(38,34,35,36)       -111.3395         estimate D2E/DX2                !
 ! D110  D(38,34,35,40)        129.7685         estimate D2E/DX2                !
 ! D111  D(38,34,35,41)          8.4165         estimate D2E/DX2                !
 ! D112  D(39,34,35,36)        126.2487         estimate D2E/DX2                !
 ! D113  D(39,34,35,40)          7.3567         estimate D2E/DX2                !
 ! D114  D(39,34,35,41)       -113.9954         estimate D2E/DX2                !
 ! D115  D(33,34,38,31)       -179.4061         estimate D2E/DX2                !
 ! D116  D(33,34,38,32)          0.4674         estimate D2E/DX2                !
 ! D117  D(35,34,38,31)        -63.4276         estimate D2E/DX2                !
 ! D118  D(35,34,38,32)        116.4459         estimate D2E/DX2                !
 ! D119  D(39,34,38,31)         61.1891         estimate D2E/DX2                !
 ! D120  D(39,34,38,32)       -118.9374         estimate D2E/DX2                !
 ! D121  D(34,35,36,37)         17.4104         estimate D2E/DX2                !
 ! D122  D(34,35,36,42)        139.3543         estimate D2E/DX2                !
 ! D123  D(34,35,36,43)       -100.7509         estimate D2E/DX2                !
 ! D124  D(40,35,36,37)        137.32           estimate D2E/DX2                !
 ! D125  D(40,35,36,42)       -100.7361         estimate D2E/DX2                !
 ! D126  D(40,35,36,43)         19.1587         estimate D2E/DX2                !
 ! D127  D(41,35,36,37)       -104.3659         estimate D2E/DX2                !
 ! D128  D(41,35,36,42)         17.578          estimate D2E/DX2                !
 ! D129  D(41,35,36,43)        137.4728         estimate D2E/DX2                !
 ! D130  D(35,36,37,33)        -34.7033         estimate D2E/DX2                !
 ! D131  D(35,36,37,44)         83.9404         estimate D2E/DX2                !
 ! D132  D(35,36,37,45)       -154.711          estimate D2E/DX2                !
 ! D133  D(42,36,37,33)       -156.5084         estimate D2E/DX2                !
 ! D134  D(42,36,37,44)        -37.8646         estimate D2E/DX2                !
 ! D135  D(42,36,37,45)         83.484          estimate D2E/DX2                !
 ! D136  D(43,36,37,33)         83.0163         estimate D2E/DX2                !
 ! D137  D(43,36,37,44)       -158.3399         estimate D2E/DX2                !
 ! D138  D(43,36,37,45)        -36.9913         estimate D2E/DX2                !
 --------------------------------------------------------------------------------
 Trust Radius=3.00D-01 FncErr=1.00D-07 GrdErr=1.00D-06 EigMax=2.50D+02 EigMin=1.00D-04
 Number of steps in this run=    282 maximum allowed number of steps=    282.
 GradGradGradGradGradGradGradGradGradGradGradGradGradGradGradGradGradGrad

                          Input orientation:                          
 ---------------------------------------------------------------------
 Center     Atomic      Atomic             Coordinates (Angstroms)
 Number     Number       Type             X           Y           Z
 ---------------------------------------------------------------------
      1          8           0       16.335796   25.069788   22.686129
      2          1           0       16.794796   25.380788   23.486129
      3          6           0       15.371796   21.636788   24.085129
      4          7           0       14.817796   21.126788   22.788129
      5          8           0       14.385796   19.893788   22.775129
      6          6           0       15.564796   23.186788   23.971129
      7          6           0       16.297796   23.628788   22.715129
      8          6           0       15.595796   23.150788   21.485129
      9          6           0       15.340796   21.649788   21.472129
     10          6           0       14.264796   21.323788   20.324129
     11          6           0       14.331796   21.287788   25.151129
     12          6           0       16.664796   21.054788   21.071129
     13          6           0       16.643796   20.930788   24.446129
     14          1           0       16.058796   23.545788   24.882129
     15          1           0       14.599796   23.706788   24.017129
     16          1           0       16.160796   23.464788   20.599129
     17          1           0       14.633796   23.655788   21.333129
     18          1           0       14.582796   21.825788   19.402129
     19          1           0       13.254796   21.656788   20.594129
     20          1           0       14.221796   20.242788   20.143129
     21          1           0       13.396796   21.837788   24.990129
     22          1           0       14.685796   21.633788   26.130129
     23          1           0       14.098796   20.217788   25.212129
     24          1           0       17.299796   23.186788   22.776129
     25          1           0       16.516796   19.967788   21.078129
     26          1           0       16.872796   21.333788   20.030129
     27          1           0       17.608796   21.192788   21.612129
     28          1           0       16.845796   21.140788   25.503129
     29          1           0       16.480796   19.849788   24.346129
     30          1           0       17.507796   21.174788   23.815129
     31          8           0       16.720599   16.217109   23.884366
     32          8           0       16.146514   18.054282   22.663327
     33          7           0       13.529669   17.450259   22.749366
     34          6           0       14.436520   16.534056   23.440450
     35          6           0       14.240538   15.178300   22.770591
     36          6           0       13.310631   15.445302   21.592887
     37          6           0       13.382870   16.944462   21.388359
     38          6           0       15.835726   17.040629   23.271083
     39          1           0       14.201685   16.510183   24.509445
     40          1           0       13.776429   14.458965   23.454597
     41          1           0       15.178704   14.740432   22.411584
     42          1           0       13.606204   14.888151   20.698863
     43          1           0       12.288205   15.145748   21.854748
     44          1           0       14.250040   17.213583   20.774499
     45          1           0       12.482490   17.336464   20.907253
     46          1           0       13.866260   18.410946   22.759495
     47          1           0       17.644435   16.531011   23.782935
 ---------------------------------------------------------------------
                    Distance matrix (angstroms):
                    1          2          3          4          5
     1  O    0.000000
     2  H    0.973346   0.000000
     3  C    3.830403   4.049848   0.000000
     4  N    4.226343   4.742599   1.499742   0.000000
     5  O    5.531853   6.034565   2.392978   1.306553   0.000000
     6  C    2.406523   2.561593   1.566124   2.490200   3.696526
     7  C    1.441793   1.977613   2.588907   2.907874   4.196376
     8  C    2.381714   3.227151   3.017014   2.529757   3.706245
     9  C    3.763007   4.482262   2.613216   1.509607   2.386078
    10  C    4.888824   5.732224   3.933006   2.532965   2.840236
    11  C    4.939207   5.058779   1.529626   2.417827   2.755273
    12  C    4.340126   4.956148   3.330881   2.522832   3.073333
    13  C    4.508191   4.554877   1.498913   2.474198   2.994357
    14  H    2.687326   2.420276   2.179784   3.431687   4.536021
    15  H    2.577407   2.811096   2.210319   2.866071   4.015885
    16  H    2.638602   3.522468   4.014511   3.472983   4.542867
    17  H    2.593609   3.504419   3.492064   2.923478   4.036522
    18  H    4.937732   5.848934   4.752760   3.465375   3.892115
    19  H    5.051494   5.896053   4.082789   2.745452   3.023920
    20  H    5.851134   6.647934   4.336485   2.851788   2.660098
    21  H    4.938822   5.134323   2.181754   2.715431   3.108614
    22  H    5.137094   5.047636   2.156996   3.382815   3.791256
    23  H    5.909886   6.074871   2.214547   2.686823   2.475139
    24  H    2.117330   2.360670   2.798779   3.225534   4.397186
    25  H    5.352460   5.930963   3.624726   2.674693   2.725151
    26  H    4.615236   5.322427   4.334494   3.445640   3.974141
    27  H    4.219613   4.659809   3.364080   3.029359   3.664382
    28  H    4.861340   4.695582   2.104618   3.388835   3.879252
    29  H    5.479510   5.606261   2.119285   2.612214   2.618970
    30  H    4.221285   4.278673   2.202008   2.879780   3.531210
    31  O    8.941687   9.172628   5.588604   5.378414   4.494405
    32  O    7.018096   7.401011   3.931419   3.349829   2.548805
    33  N    8.120072   8.607971   4.764947   3.895849   2.589296
    34  C    8.776957   9.155775   5.227641   4.654469   3.425350
    35  C   10.111319  10.541678   6.687288   5.976457   4.717727
    36  C   10.147785  10.697554   6.985283   5.998286   4.726807
    37  C    8.742134   9.338816   5.765962   4.637911   3.409914
    38  C    8.065955   8.397875   4.690691   4.238646   3.238639
    39  H    9.008094   9.298335   5.275537   4.965437   3.806643
    40  H   10.942142  11.331273   7.379967   6.781482   5.510926
    41  H   10.397588  10.815895   7.099138   6.407619   5.226657
    42  H   10.726865  11.315097   7.754239   6.689812   5.474948
    43  H   10.749919  11.301628   7.524409   6.560706   5.271705
    44  H    8.350129   8.973960   5.637672   4.437367   3.347304
    45  H    8.821375   9.484605   6.077810   4.833001   3.694785
    46  H    7.102406   7.594934   3.798684   2.877853   1.571300
    47  H    8.707826   8.895422   5.596890   5.486410   4.789851
                    6          7          8          9         10
     6  C    0.000000
     7  C    1.519931   0.000000
     8  C    2.486454   1.494720   0.000000
     9  C    2.942371   2.525339   1.522562   0.000000
    10  C    4.296671   3.893969   2.541144   1.606847   0.000000
    11  C    2.553212   3.908904   4.302095   3.831992   4.827599
    12  C    3.763698   3.076183   2.389011   1.505922   2.527918
    13  C    2.545467   3.224171   3.846326   3.325575   4.775455
    14  H    1.096740   2.181719   3.451087   3.967170   5.378762
    15  H    1.097151   2.141143   2.777080   3.355198   4.407852
    16  H    3.435533   2.126763   1.096730   2.174570   2.873034
    17  H    2.836506   2.163227   1.097075   2.131480   2.567580
    18  H    4.867485   4.143429   2.668461   2.211434   1.096910
    19  H    4.368195   4.200866   2.916539   2.263256   1.097219
    20  H    5.012421   4.731803   3.485011   2.235632   1.096892
    21  H    2.749252   4.098671   4.341036   4.023780   4.773801
    22  H    2.801023   4.270924   4.970454   4.703854   5.829492
    23  H    3.536128   4.765032   4.973332   4.192945   5.014313
    24  H    2.106715   1.096854   2.138128   2.810777   4.323690
    25  H    4.431446   4.016298   3.338470   2.089817   2.734731
    26  H    4.547082   3.578669   2.655041   2.127497   2.624538
    27  H    3.703897   2.978158   2.811061   2.317816   3.585867
    28  H    2.859038   3.776691   4.663360   4.332790   5.789395
    29  H    3.480697   4.120011   4.457033   3.577636   4.822843
    30  H    2.801380   2.948935   3.604056   3.226633   4.767214
    31  O    7.065397   7.515242   7.422764   6.102192   6.692116
    32  O    5.328354   5.576799   5.259830   3.872440   4.438736
    33  N    6.208238   6.770371   6.193804   4.748427   4.628868
    34  C    6.768565   7.370594   6.996309   5.555422   5.716859
    35  C    8.205536   8.697478   8.188388   6.691541   6.614589
    36  C    8.406420   8.783623   8.037917   6.529303   6.089070
    37  C    7.099165   7.411972   6.589756   5.097115   4.592262
    38  C    6.191828   6.627702   6.370341   4.972478   5.431189
    39  H    6.835563   7.634644   7.428841   6.077697   6.379001
    40  H    8.924122   9.538855   9.095971   7.621375   7.560697
    41  H    8.597801   8.963670   8.471504   6.974815   6.966583
    42  H    9.132973   9.365294   8.535096   7.023282   6.480092
    43  H    8.937194   9.422263   8.669339   7.194946   6.664674
    44  H    6.901174   7.008153   6.129148   4.621293   4.134832
    45  H    7.287951   7.577487   6.620648   5.205167   4.406291
    46  H    5.211694   5.756754   5.203980   3.784398   3.817655
    47  H    6.975650   7.302882   7.300568   6.070293   6.808525
                   11         12         13         14         15
    11  C    0.000000
    12  C    4.705696   0.000000
    13  C    2.443321   3.377342   0.000000
    14  H    2.855425   4.593042   2.714875   0.000000
    15  H    2.685022   4.469479   3.473925   1.703768   0.000000
    16  H    5.367054   2.506970   4.631831   4.284980   3.765370
    17  H    4.502860   3.310409   4.599619   3.825980   2.684700
    18  H    5.779571   2.777540   5.521837   5.930209   4.983641
    19  H    4.697056   3.495430   5.181728   5.460557   4.210517
    20  H    5.117049   2.736563   4.985503   6.061559   5.210572
    21  H    1.096652   5.162507   3.414908   3.164676   2.426334
    22  H    1.097029   5.463073   2.676533   2.664278   2.961333
    23  H    1.096773   4.942955   2.751754   3.876349   3.721847
    24  H    4.249218   2.802798   2.882494   2.470668   3.016700
    25  H    4.806865   1.097052   3.505271   5.242353   5.127644
    26  H    5.716943   1.097627   4.440260   5.394205   5.166607
    27  H    4.824135   1.096750   3.005233   4.316481   4.599815
    28  H    2.542776   4.436528   1.096427   2.605578   3.719821
    29  H    2.708149   3.494497   1.097784   3.758430   4.303818
    30  H    3.447411   2.873079   1.097357   2.976530   3.861126
    31  O    5.746551   5.596477   4.747657   7.425837   7.785289
    32  O    4.465190   3.436094   3.420520   5.923463   6.014643
    33  N    4.597663   5.063411   4.968991   6.935462   6.472755
    34  C    5.053252   5.569193   5.021425   7.339932   7.197729
    35  C    6.557524   6.580145   6.455555   8.819269   8.626588
    36  C    6.916539   6.556599   7.024353   9.164573   8.705806
    37  C    5.824378   5.269388   5.989524   7.933758   7.356657
    38  C    4.882083   4.651949   4.143314   6.705395   6.820688
    39  H    4.822261   6.208250   5.050710   7.286117   7.224403
    40  H    7.058292   7.584752   7.147687   9.477204   9.301431
    41  H    7.147743   6.623925   6.678800   9.187625   9.127346
    42  H    7.829720   6.893547   7.731910   9.923185   9.474517
    43  H    7.264093   7.394955   7.691106   9.692423   9.127472
    44  H    5.980026   4.546855   5.747046   7.761510   7.266270
    45  H    6.086327   5.598613   6.539058   8.194224   7.398333
    46  H    3.769995   4.203842   4.112061   5.973223   5.492328
    47  H    5.955876   5.364527   4.560608   7.275272   7.798491
                   16         17         18         19         20
    16  H    0.000000
    17  H    1.704983   0.000000
    18  H    2.570839   2.660876   0.000000
    19  H    3.422532   2.538457   1.792487   0.000000
    20  H    3.788000   3.637913   1.784738   1.771408   0.000000
    21  H    5.437620   4.267194   5.712485   4.402016   5.168951
    22  H    6.010004   5.205996   6.731527   5.718005   6.163955
    23  H    6.006215   5.210826   6.047811   4.910090   5.070554
    24  H    2.472637   3.067534   4.540736   4.843970   5.007385
    25  H    3.547561   4.148742   3.162514   3.705080   2.493366
    26  H    2.317729   3.478881   2.424984   3.675915   2.868946
    27  H    2.878343   3.872316   3.800193   4.495435   3.812116
    28  H    5.469864   5.348558   6.543133   6.104082   6.035013
    29  H    5.216381   5.193767   5.652443   5.267811   4.787770
    30  H    4.171470   4.536029   5.334229   5.356788   5.014978
    31  O    7.977155   8.136184   7.491190   7.240687   6.037132
    32  O    5.790914   5.952697   5.225407   5.061784   3.852985
    33  N    6.908032   6.460141   5.608772   4.734500   3.881975
    34  C    7.686435   7.429588   6.658217   5.978327   4.967205
    35  C    8.778868   8.607482   7.460079   6.905033   5.705519
    36  C    8.568731   8.320476   6.865015   6.291518   5.093907
    37  C    7.131228   6.827134   5.404838   4.780504   3.623996
    38  C    6.965259   6.997187   6.279840   5.927580   4.758433
    39  H    8.215548   7.831691   7.381435   6.535583   5.744342
    40  H    9.743909   9.477197   8.446467   7.762927   6.679580
    41  H    8.964591   8.996864   7.721023   7.405440   6.028058
    42  H    8.949558   8.850407   7.125031   6.778562   5.418481
    43  H    9.261747   8.842774   7.476859   6.702022   5.713863
    44  H    6.539060   6.477757   4.823542   4.556876   3.094432
    45  H    7.154106   6.689046   5.179837   4.399966   3.472145
    46  H    5.955955   5.489262   4.842156   3.949454   3.213631
    47  H    7.772714   8.113443   7.523282   7.463981   6.224142
                   21         22         23         24         25
    21  H    0.000000
    22  H    1.732841   0.000000
    23  H    1.779463   1.786715   0.000000
    24  H    4.685617   4.527043   4.999546   0.000000
    25  H    5.341820   5.625906   4.795746   3.722668   0.000000
    26  H    6.077680   6.487139   5.982780   3.340128   1.758123
    27  H    5.437633   5.399142   5.121594   2.329466   1.725759
    28  H    3.555922   2.302559   2.912494   3.439297   4.589640
    29  H    3.725310   3.096343   2.561114   3.777728   3.270328
    30  H    4.326721   3.678803   3.806408   2.273968   3.151206
    31  O    6.622870   6.206793   4.964095   7.080966   4.688720
    32  O    5.223971   5.192810   3.920497   5.261692   2.512263
    33  N    4.928396   5.501646   3.748110   6.864572   4.248990
    34  C    5.622464   5.770943   4.101559   7.273136   4.658178
    35  C    7.070150   7.290958   5.601574   8.572921   5.566415
    36  C    7.239652   7.795833   6.041254   8.788863   5.567526
    37  C    6.075984   6.794982   5.084135   7.498990   4.365574
    38  C    5.649445   5.531148   4.108397   6.337488   3.720371
    39  H    5.409462   5.395583   3.775008   7.561728   5.393395
    40  H    7.546457   7.711259   6.029667   9.436595   6.595782
    41  H    7.758644   7.847859   6.245853   8.716241   5.558223
    42  H    8.170451   8.727416   7.001232   9.317995   5.866695
    43  H    7.472816   8.131543   6.346325   9.519628   6.460355
    44  H    6.315285   6.957792   5.361033   6.999051   3.579947
    45  H    6.145547   7.113366   5.426456   7.805474   4.819615
    46  H    4.115747   4.734926   3.055187   5.882016   3.503725
    47  H    6.903741   6.348323   5.310977   6.740312   4.516524
                   26         27         28         29         30
    26  H    0.000000
    27  H    1.750514   0.000000
    28  H    5.476468   3.965445   0.000000
    29  H    4.580805   3.248198   1.771597   0.000000
    30  H    3.841189   2.205387   1.813489   1.758498   0.000000
    31  O    6.407707   5.541600   5.184465   3.669753   5.020264
    32  O    4.268065   3.618495   4.252057   2.483427   3.594064
    33  N    5.801082   5.651470   5.674497   4.125111   5.552789
    34  C    6.372060   5.925359   5.592963   3.999175   5.577590
    35  C    7.233875   6.990083   7.057294   5.415152   6.908249
    36  C    7.057301   7.176921   7.760538   6.085211   7.441879
    37  C    5.769797   5.996399   6.821462   5.175565   6.387479
    38  C    5.478185   4.810024   4.776356   3.076234   4.492558
    39  H    7.103962   6.475310   5.424135   4.046478   5.759426
    40  H    8.281163   7.964051   7.633103   6.096672   7.691252
    41  H    7.212047   6.940992   7.300781   5.616353   6.985381
    42  H    7.257001   7.523513   8.524753   6.795857   8.028409
    43  H    7.914515   8.058179   8.367964   6.775898   8.211976
    44  H    4.940549   5.274176   6.672393   4.968137   5.962344
    45  H    6.001894   6.453456   7.391441   5.842013   6.960041
    46  H    5.003169   4.802257   4.884384   3.379863   4.691905
    47  H    6.143749   5.142552   4.984670   3.561675   4.645899
                   31         32         33         34         35
    31  O    0.000000
    32  O    2.279411   0.000000
    33  N    3.604291   2.687029   0.000000
    34  C    2.348304   2.416420   1.462670   0.000000
    35  C    2.910381   3.451887   2.380668   1.524858   0.000000
    36  C    4.180244   3.999356   2.324925   2.422086   1.524141
    37  C    4.230783   3.239594   1.459356   2.343009   2.401143
    38  C    1.355470   1.222068   2.399559   1.497691   2.502676
    39  H    2.611808   3.094310   2.105523   1.094746   2.190669
    40  H    3.455996   4.378324   3.083193   2.177596   1.095766
    41  H    2.593665   3.461450   3.190074   2.196927   1.095797
    42  H    4.648980   4.509621   3.282502   3.303745   2.186007
    43  H    4.991320   4.898971   2.766287   3.009503   2.156718
    44  H    4.094861   2.805540   2.115431   2.757503   2.850763
    45  H    5.298841   4.126030   2.122007   3.298360   3.349691
    46  H    3.771671   2.309981   1.017996   2.076442   3.254259
    47  H    0.980967   2.411980   4.341035   3.226147   3.800156
                   36         37         38         39         40
    36  C    0.000000
    37  C    1.514771   0.000000
    38  C    3.426006   3.093607   0.000000
    39  H    3.230211   3.255801   2.117783   0.000000
    40  H    2.157729   3.256060   3.307472   2.345430   0.000000
    41  H    2.157963   3.021549   2.541913   2.913349   1.770162
    42  H    1.094102   2.180298   4.027437   4.184032   2.794146
    43  H    1.097114   2.156660   4.263975   3.545491   2.290415
    44  H    2.163115   1.096008   2.962641   3.800912   3.872358
    45  H    2.175409   1.093532   4.113320   4.076047   4.055027
    46  H    3.234925   2.065007   2.453220   2.605328   4.013650
    47  H    4.975634   4.905699   1.947597   3.518633   4.400301
                   41         42         43         44         45
    41  H    0.000000
    42  H    2.329805   0.000000
    43  H    2.971420   1.771877   0.000000
    44  H    3.107883   2.414101   3.048225   0.000000
    45  H    4.033852   2.701925   2.394730   1.776782   0.000000
    46  H    3.913594   4.089489   3.737692   2.349717   2.549535
    47  H    3.341647   5.340207   5.858845   4.586776   5.963554
                   46         47
    46  H    0.000000
    47  H    4.342372   0.000000
 Stoichiometry    C14H27N2O4(2)
 Framework group  C1[X(C14H27N2O4)]
 Deg. of freedom   135
 Full point group                 C1      NOp   1
 Largest Abelian subgroup         C1      NOp   1
 Largest concise Abelian subgroup C1      NOp   1
                         Standard orientation:                         
 ---------------------------------------------------------------------
 Center     Atomic      Atomic             Coordinates (Angstroms)
 Number     Number       Type             X           Y           Z
 ---------------------------------------------------------------------
      1          8           0       -5.331680    0.072862    0.182976
      2          1           0       -5.738561   -0.810579    0.220142
      3          6           0       -1.803042   -1.145859   -0.674589
      4          7           0       -1.173968    0.210981   -0.562897
      5          8           0        0.118824    0.278412   -0.739601
      6          6           0       -3.359146   -0.973546   -0.714517
      7          6           0       -3.910622   -0.072644    0.378387
      8          6           0       -3.285910    1.284200    0.324556
      9          6           0       -1.763836    1.256998    0.351881
     10          6           0       -1.218427    2.700304   -0.096842
     11          6           0       -1.280947   -1.743446   -1.982283
     12          6           0       -1.425292    1.046860    1.804131
     13          6           0       -1.359066   -2.042638    0.441392
     14          1           0       -3.821770   -1.967815   -0.698799
     15          1           0       -3.686289   -0.587162   -1.687875
     16          1           0       -3.686236    1.901034    1.138233
     17          1           0       -3.595413    1.849067   -0.563535
     18          1           0       -1.755532    3.464827    0.477819
     19          1           0       -1.357398    2.882195   -1.169918
     20          1           0       -0.146049    2.782266    0.118699
     21          1           0       -1.639607   -1.176801   -2.849993
     22          1           0       -1.705309   -2.745960   -2.117764
     23          1           0       -0.187394   -1.806917   -2.037271
     24          1           0       -3.668977   -0.564197    1.328689
     25          1           0       -0.330313    0.997708    1.850252
     26          1           0       -1.720448    1.942801    2.365344
     27          1           0       -1.750308    0.193138    2.411078
     28          1           0       -1.622332   -3.069248    0.160476
     29          1           0       -0.265229   -1.987478    0.516284
     30          1           0       -1.752206   -1.783268    1.432533
     31          8           0        3.262602   -1.997373    1.526925
     32          8           0        1.590448   -0.483890    1.196794
     33          7           0        2.680848    0.412045   -1.089787
     34          6           0        3.394957   -0.662286   -0.400394
     35          6           0        4.774797   -0.098574   -0.078736
     36          6           0        4.710843    1.369476   -0.483390
     37          6           0        3.229265    1.667413   -0.586783
     38          6           0        2.633897   -1.011460    0.841356
     39          1           0        3.444335   -1.549539   -1.039778
     40          1           0        5.557273   -0.608117   -0.652148
     41          1           0        5.031963   -0.180526    0.983300
     42          1           0        5.217066    2.018792    0.237156
     43          1           0        5.195229    1.504902   -1.458423
     44          1           0        2.810562    1.912194    0.396071
     45          1           0        3.024716    2.498452   -1.267478
     46          1           0        1.673574    0.359507   -0.952109
     47          1           0        2.780109   -2.239336    2.346041
 ---------------------------------------------------------------------
 Rotational constants (GHZ):           0.6603308           0.1789152           0.1654691
 Standard basis: 6-311G(d,p) (5D, 7F)
 There are   542 symmetry adapted cartesian basis functions of A   symmetry.
 There are   522 symmetry adapted basis functions of A   symmetry.
   522 basis functions,   856 primitive gaussians,   542 cartesian basis functions
    79 alpha electrons       78 beta electrons
       nuclear repulsion energy      1787.9794992190 Hartrees.
 NAtoms=   47 NActive=   47 NUniq=   47 SFac= 1.00D+00 NAtFMM=   60 NAOKFM=F Big=F
 Integral buffers will be    131072 words long.
 Raffenetti 2 integral format.
 Two-electron integral symmetry is turned on.
 ------------------------------------------------------------------------------
 Polarizable Continuum Model (PCM)
 =================================
 Model                : PCM.
 Atomic radii         : UFF (Universal Force Field).
 Polarization charges : Total charges.
 Charge compensation  : None.
 Solution method      : On-the-fly selection.
 Cavity type          : Scaled VdW (van der Waals Surface) (Alpha=1.100).
 Cavity algorithm     : GePol (No added spheres)
                        Default sphere list used, NSphG=   47.
                        Lebedev-Laikov grids with approx.  5.0 points / Ang**2.
                        Smoothing algorithm: York/Karplus (Gamma=1.0000).
                        Polarization charges: spherical gaussians, with
                                              point-specific exponents (IZeta= 3).
                        Self-potential: point-specific (ISelfS= 7).
                        Self-field    : sphere-specific E.n sum rule (ISelfD= 2).
 1st derivatives      : Analytical E(r).r(x)/FMM algorithm (CHGder, D1EAlg=3).
                        Cavity 1st derivative terms included.
 Solvent              : Water, Eps=  78.355300 Eps(inf)=   1.777849
 ------------------------------------------------------------------------------
 One-electron integrals computed using PRISM.
 NBasis=   522 RedAO= T EigKep=  7.47D-04  NBF=   522
 NBsUse=   522 1.00D-06 EigRej= -1.00D+00 NBFU=   522
 ExpMin= 1.03D-01 ExpMax= 8.59D+03 ExpMxC= 1.30D+03 IAcc=3 IRadAn=         5 AccDes= 0.00D+00
 Harris functional with IExCor= 1009 and IRadAn=       5 diagonalized for initial guess.
 HarFok:  IExCor= 1009 AccDes= 0.00D+00 IRadAn=         5 IDoV= 1 UseB2=F ITyADJ=14
 ICtDFT=  3500011 ScaDFX=  1.000000  1.000000  1.000000  1.000000
 FoFCou: FMM=F IPFlag=           0 FMFlag=      100000 FMFlg1=           0
         NFxFlg=           0 DoJE=T BraDBF=F KetDBF=T FulRan=T
         wScrn=  0.000000 ICntrl=       500 IOpCl=  0 I1Cent=   200000004 NGrid=           0
         NMat0=    1 NMatS0=      1 NMatT0=    0 NMatD0=    1 NMtDS0=    0 NMtDT0=    0
 Petite list used in FoFCou.
 Initial guess <Sx>= 0.0000 <Sy>= 0.0000 <Sz>= 0.5000 <S**2>= 0.7500 S= 0.5000
 Requested convergence on RMS density matrix=1.00D-08 within 128 cycles.
 Requested convergence on MAX density matrix=1.00D-06.
 Requested convergence on             energy=1.00D-06.
 No special actions if energy rises.
 Inv3:  Mode=1 IEnd=    25983747.
 Iteration    1 A*A^-1 deviation from unit magnitude is 8.22D-15 for   2930.
 Iteration    1 A*A^-1 deviation from orthogonality  is 7.60D-15 for   1925   1533.
 Iteration    1 A^-1*A deviation from unit magnitude is 8.44D-15 for   2930.
 Iteration    1 A^-1*A deviation from orthogonality  is 1.57D-14 for   2675   2650.
 Error on total polarization charges =  0.01325
 SCF Done:  E(UM062X) =  -959.929923975     A.U. after   17 cycles
            NFock= 17  Conv=0.73D-08     -V/T= 2.0038
 <Sx>= 0.0000 <Sy>= 0.0000 <Sz>= 0.5000 <S**2>= 0.7549 S= 0.5025
 <L.S>= 0.000000000000E+00
 Annihilation of the first spin contaminant:
 S**2 before annihilation     0.7549,   after     0.7500

 **********************************************************************

            Population analysis using the SCF density.

 **********************************************************************

 Orbital symmetries:
 Alpha Orbitals:
       Occupied  (A) (A) (A) (A) (A) (A) (A) (A) (A) (A) (A) (A)
                 (A) (A) (A) (A) (A) (A) (A) (A) (A) (A) (A) (A)
                 (A) (A) (A) (A) (A) (A) (A) (A) (A) (A) (A) (A)
                 (A) (A) (A) (A) (A) (A) (A) (A) (A) (A) (A) (A)
                 (A) (A) (A) (A) (A) (A) (A) (A) (A) (A) (A) (A)
                 (A) (A) (A) (A) (A) (A) (A) (A) (A) (A) (A) (A)
                 (A) (A) (A) (A) (A) (A) (A)
       Virtual   (A) (A) (A) (A) (A) (A) (A) (A) (A) (A) (A) (A)
                 (A) (A) (A) (A) (A) (A) (A) (A) (A) (A) (A) (A)
                 (A) (A) (A) (A) (A) (A) (A) (A) (A) (A) (A) (A)
                 (A) (A) (A) (A) (A) (A) (A) (A) (A) (A) (A) (A)
                 (A) (A) (A) (A) (A) (A) (A) (A) (A) (A) (A) (A)
                 (A) (A) (A) (A) (A) (A) (A) (A) (A) (A) (A) (A)
                 (A) (A) (A) (A) (A) (A) (A) (A) (A) (A) (A) (A)
                 (A) (A) (A) (A) (A) (A) (A) (A) (A) (A) (A) (A)
                 (A) (A) (A) (A) (A) (A) (A) (A) (A) (A) (A) (A)
                 (A) (A) (A) (A) (A) (A) (A) (A) (A) (A) (A) (A)
                 (A) (A) (A) (A) (A) (A) (A) (A) (A) (A) (A) (A)
                 (A) (A) (A) (A) (A) (A) (A) (A) (A) (A) (A) (A)
                 (A) (A) (A) (A) (A) (A) (A) (A) (A) (A) (A) (A)
                 (A) (A) (A) (A) (A) (A) (A) (A) (A) (A) (A) (A)
                 (A) (A) (A) (A) (A) (A) (A) (A) (A) (A) (A) (A)
                 (A) (A) (A) (A) (A) (A) (A) (A) (A) (A) (A) (A)
                 (A) (A) (A) (A) (A) (A) (A) (A) (A) (A) (A) (A)
                 (A) (A) (A) (A) (A) (A) (A) (A) (A) (A) (A) (A)
                 (A) (A) (A) (A) (A) (A) (A) (A) (A) (A) (A) (A)
                 (A) (A) (A) (A) (A) (A) (A) (A) (A) (A) (A) (A)
                 (A) (A) (A) (A) (A) (A) (A) (A) (A) (A) (A) (A)
                 (A) (A) (A) (A) (A) (A) (A) (A) (A) (A) (A) (A)
                 (A) (A) (A) (A) (A) (A) (A) (A) (A) (A) (A) (A)
                 (A) (A) (A) (A) (A) (A) (A) (A) (A) (A) (A) (A)
                 (A) (A) (A) (A) (A) (A) (A) (A) (A) (A) (A) (A)
                 (A) (A) (A) (A) (A) (A) (A) (A) (A) (A) (A) (A)
                 (A) (A) (A) (A) (A) (A) (A) (A) (A) (A) (A) (A)
                 (A) (A) (A) (A) (A) (A) (A) (A) (A) (A) (A) (A)
                 (A) (A) (A) (A) (A) (A) (A) (A) (A) (A) (A) (A)
                 (A) (A) (A) (A) (A) (A) (A) (A) (A) (A) (A) (A)
                 (A) (A) (A) (A) (A) (A) (A) (A) (A) (A) (A) (A)
                 (A) (A) (A) (A) (A) (A) (A) (A) (A) (A) (A) (A)
                 (A) (A) (A) (A) (A) (A) (A) (A) (A) (A) (A) (A)
                 (A) (A) (A) (A) (A) (A) (A) (A) (A) (A) (A) (A)
                 (A) (A) (A) (A) (A) (A) (A) (A) (A) (A) (A) (A)
                 (A) (A) (A) (A) (A) (A) (A) (A) (A) (A) (A) (A)
                 (A) (A) (A) (A) (A) (A) (A) (A) (A) (A) (A)
 Beta  Orbitals:
       Occupied  (A) (A) (A) (A) (A) (A) (A) (A) (A) (A) (A) (A)
                 (A) (A) (A) (A) (A) (A) (A) (A) (A) (A) (A) (A)
                 (A) (A) (A) (A) (A) (A) (A) (A) (A) (A) (A) (A)
                 (A) (A) (A) (A) (A) (A) (A) (A) (A) (A) (A) (A)
                 (A) (A) (A) (A) (A) (A) (A) (A) (A) (A) (A) (A)
                 (A) (A) (A) (A) (A) (A) (A) (A) (A) (A) (A) (A)
                 (A) (A) (A) (A) (A) (A)
       Virtual   (A) (A) (A) (A) (A) (A) (A) (A) (A) (A) (A) (A)
                 (A) (A) (A) (A) (A) (A) (A) (A) (A) (A) (A) (A)
                 (A) (A) (A) (A) (A) (A) (A) (A) (A) (A) (A) (A)
                 (A) (A) (A) (A) (A) (A) (A) (A) (A) (A) (A) (A)
                 (A) (A) (A) (A) (A) (A) (A) (A) (A) (A) (A) (A)
                 (A) (A) (A) (A) (A) (A) (A) (A) (A) (A) (A) (A)
                 (A) (A) (A) (A) (A) (A) (A) (A) (A) (A) (A) (A)
                 (A) (A) (A) (A) (A) (A) (A) (A) (A) (A) (A) (A)
                 (A) (A) (A) (A) (A) (A) (A) (A) (A) (A) (A) (A)
                 (A) (A) (A) (A) (A) (A) (A) (A) (A) (A) (A) (A)
                 (A) (A) (A) (A) (A) (A) (A) (A) (A) (A) (A) (A)
                 (A) (A) (A) (A) (A) (A) (A) (A) (A) (A) (A) (A)
                 (A) (A) (A) (A) (A) (A) (A) (A) (A) (A) (A) (A)
                 (A) (A) (A) (A) (A) (A) (A) (A) (A) (A) (A) (A)
                 (A) (A) (A) (A) (A) (A) (A) (A) (A) (A) (A) (A)
                 (A) (A) (A) (A) (A) (A) (A) (A) (A) (A) (A) (A)
                 (A) (A) (A) (A) (A) (A) (A) (A) (A) (A) (A) (A)
                 (A) (A) (A) (A) (A) (A) (A) (A) (A) (A) (A) (A)
                 (A) (A) (A) (A) (A) (A) (A) (A) (A) (A) (A) (A)
                 (A) (A) (A) (A) (A) (A) (A) (A) (A) (A) (A) (A)
                 (A) (A) (A) (A) (A) (A) (A) (A) (A) (A) (A) (A)
                 (A) (A) (A) (A) (A) (A) (A) (A) (A) (A) (A) (A)
                 (A) (A) (A) (A) (A) (A) (A) (A) (A) (A) (A) (A)
                 (A) (A) (A) (A) (A) (A) (A) (A) (A) (A) (A) (A)
                 (A) (A) (A) (A) (A) (A) (A) (A) (A) (A) (A) (A)
                 (A) (A) (A) (A) (A) (A) (A) (A) (A) (A) (A) (A)
                 (A) (A) (A) (A) (A) (A) (A) (A) (A) (A) (A) (A)
                 (A) (A) (A) (A) (A) (A) (A) (A) (A) (A) (A) (A)
                 (A) (A) (A) (A) (A) (A) (A) (A) (A) (A) (A) (A)
                 (A) (A) (A) (A) (A) (A) (A) (A) (A) (A) (A) (A)
                 (A) (A) (A) (A) (A) (A) (A) (A) (A) (A) (A) (A)
                 (A) (A) (A) (A) (A) (A) (A) (A) (A) (A) (A) (A)
                 (A) (A) (A) (A) (A) (A) (A) (A) (A) (A) (A) (A)
                 (A) (A) (A) (A) (A) (A) (A) (A) (A) (A) (A) (A)
                 (A) (A) (A) (A) (A) (A) (A) (A) (A) (A) (A) (A)
                 (A) (A) (A) (A) (A) (A) (A) (A) (A) (A) (A) (A)
                 (A) (A) (A) (A) (A) (A) (A) (A) (A) (A) (A) (A)
 The electronic state is 2-A.
 Alpha  occ. eigenvalues --  -19.66552 -19.63424 -19.61935 -19.61586 -14.84538
 Alpha  occ. eigenvalues --  -14.70070 -10.67491 -10.59826 -10.59426 -10.59340
 Alpha  occ. eigenvalues --  -10.57143 -10.54554 -10.53991 -10.53642 -10.53572
 Alpha  occ. eigenvalues --  -10.53561 -10.52732 -10.52638 -10.52621 -10.52459
 Alpha  occ. eigenvalues --   -1.22740  -1.21735  -1.14094  -1.13764  -1.02232
 Alpha  occ. eigenvalues --   -0.98317  -0.92584  -0.86915  -0.85817  -0.84413
 Alpha  occ. eigenvalues --   -0.82601  -0.78688  -0.78197  -0.77732  -0.73729
 Alpha  occ. eigenvalues --   -0.69310  -0.68395  -0.66018  -0.65822  -0.62586
 Alpha  occ. eigenvalues --   -0.60419  -0.59347  -0.58448  -0.57238  -0.56749
 Alpha  occ. eigenvalues --   -0.56482  -0.55041  -0.52844  -0.52695  -0.52022
 Alpha  occ. eigenvalues --   -0.51378  -0.49873  -0.49769  -0.48031  -0.47624
 Alpha  occ. eigenvalues --   -0.47460  -0.46891  -0.45640  -0.45521  -0.44487
 Alpha  occ. eigenvalues --   -0.43765  -0.43654  -0.43114  -0.42699  -0.42024
 Alpha  occ. eigenvalues --   -0.41507  -0.41324  -0.40572  -0.39962  -0.39849
 Alpha  occ. eigenvalues --   -0.39169  -0.38860  -0.38538  -0.37466  -0.35491
 Alpha  occ. eigenvalues --   -0.34836  -0.34345  -0.28425  -0.27484
 Alpha virt. eigenvalues --    0.04201   0.06338   0.07386   0.08022   0.08664
 Alpha virt. eigenvalues --    0.08843   0.09721   0.10505   0.10620   0.11233
 Alpha virt. eigenvalues --    0.11813   0.13232   0.13781   0.14239   0.14943
 Alpha virt. eigenvalues --    0.15466   0.16179   0.16411   0.16816   0.17433
 Alpha virt. eigenvalues --    0.17784   0.18293   0.18580   0.19466   0.20178
 Alpha virt. eigenvalues --    0.20318   0.20705   0.20945   0.21313   0.22078
 Alpha virt. eigenvalues --    0.22366   0.22544   0.23205   0.24382   0.25589
 Alpha virt. eigenvalues --    0.25993   0.27317   0.28151   0.28565   0.28970
 Alpha virt. eigenvalues --    0.29427   0.29850   0.30345   0.31096   0.32218
 Alpha virt. eigenvalues --    0.33167   0.34199   0.34433   0.35342   0.35884
 Alpha virt. eigenvalues --    0.37326   0.37344   0.39244   0.39808   0.40561
 Alpha virt. eigenvalues --    0.41598   0.42089   0.42562   0.43284   0.43900
 Alpha virt. eigenvalues --    0.44353   0.45316   0.46333   0.47361   0.48730
 Alpha virt. eigenvalues --    0.49176   0.49244   0.49986   0.51148   0.52370
 Alpha virt. eigenvalues --    0.52690   0.52835   0.53300   0.54048   0.54324
 Alpha virt. eigenvalues --    0.55802   0.56690   0.57717   0.58614   0.58697
 Alpha virt. eigenvalues --    0.59464   0.60146   0.60821   0.61279   0.61963
 Alpha virt. eigenvalues --    0.62136   0.62693   0.62819   0.63550   0.63630
 Alpha virt. eigenvalues --    0.64060   0.64126   0.64483   0.64646   0.65322
 Alpha virt. eigenvalues --    0.65477   0.65809   0.66292   0.66707   0.66868
 Alpha virt. eigenvalues --    0.67003   0.67701   0.68057   0.68582   0.68879
 Alpha virt. eigenvalues --    0.69517   0.70022   0.70641   0.71039   0.71639
 Alpha virt. eigenvalues --    0.72719   0.73200   0.73463   0.74711   0.76360
 Alpha virt. eigenvalues --    0.76907   0.77763   0.79433   0.79650   0.82921
 Alpha virt. eigenvalues --    0.84292   0.86512   0.87667   0.87792   0.89361
 Alpha virt. eigenvalues --    0.90399   0.92063   0.93500   0.94760   0.95643
 Alpha virt. eigenvalues --    0.96720   0.97547   0.98491   1.00120   1.01024
 Alpha virt. eigenvalues --    1.01220   1.01587   1.02076   1.04166   1.06248
 Alpha virt. eigenvalues --    1.07419   1.08750   1.10035   1.11447   1.12393
 Alpha virt. eigenvalues --    1.14389   1.15754   1.16686   1.19071   1.20306
 Alpha virt. eigenvalues --    1.22813   1.23956   1.25106   1.26220   1.27017
 Alpha virt. eigenvalues --    1.27562   1.30625   1.31714   1.32578   1.33796
 Alpha virt. eigenvalues --    1.35516   1.36681   1.37719   1.38485   1.39415
 Alpha virt. eigenvalues --    1.40234   1.41261   1.41954   1.42639   1.43833
 Alpha virt. eigenvalues --    1.45667   1.46269   1.47363   1.48471   1.48586
 Alpha virt. eigenvalues --    1.49537   1.49860   1.50413   1.50917   1.51535
 Alpha virt. eigenvalues --    1.51889   1.52556   1.52865   1.53059   1.53534
 Alpha virt. eigenvalues --    1.54179   1.54709   1.55437   1.56661   1.57226
 Alpha virt. eigenvalues --    1.57467   1.58065   1.58382   1.59081   1.59857
 Alpha virt. eigenvalues --    1.61082   1.61728   1.62069   1.63779   1.64298
 Alpha virt. eigenvalues --    1.64751   1.65464   1.65841   1.66803   1.67695
 Alpha virt. eigenvalues --    1.68362   1.68797   1.69481   1.69863   1.71053
 Alpha virt. eigenvalues --    1.71364   1.72048   1.72541   1.74504   1.74834
 Alpha virt. eigenvalues --    1.75032   1.75630   1.75906   1.76315   1.77846
 Alpha virt. eigenvalues --    1.78398   1.78598   1.79601   1.80054   1.80547
 Alpha virt. eigenvalues --    1.81299   1.82279   1.82979   1.84935   1.85663
 Alpha virt. eigenvalues --    1.86111   1.86453   1.87165   1.87522   1.88288
 Alpha virt. eigenvalues --    1.89409   1.90833   1.91180   1.92004   1.92376
 Alpha virt. eigenvalues --    1.93407   1.94247   1.95565   1.97208   1.98095
 Alpha virt. eigenvalues --    1.98976   2.00066   2.02588   2.03926   2.04486
 Alpha virt. eigenvalues --    2.06320   2.07298   2.07565   2.08236   2.09890
 Alpha virt. eigenvalues --    2.11891   2.12384   2.13319   2.14162   2.15618
 Alpha virt. eigenvalues --    2.16091   2.18583   2.19227   2.19629   2.21555
 Alpha virt. eigenvalues --    2.21889   2.22939   2.23323   2.24471   2.25428
 Alpha virt. eigenvalues --    2.26788   2.27656   2.28973   2.30621   2.32534
 Alpha virt. eigenvalues --    2.34534   2.35045   2.35649   2.36150   2.38103
 Alpha virt. eigenvalues --    2.39777   2.40823   2.41752   2.43430   2.44921
 Alpha virt. eigenvalues --    2.45442   2.46632   2.47054   2.48190   2.49498
 Alpha virt. eigenvalues --    2.49850   2.50185   2.50703   2.51362   2.52931
 Alpha virt. eigenvalues --    2.53335   2.54928   2.55220   2.55863   2.56310
 Alpha virt. eigenvalues --    2.57167   2.57928   2.58421   2.58869   2.59295
 Alpha virt. eigenvalues --    2.59829   2.60483   2.61720   2.63458   2.63490
 Alpha virt. eigenvalues --    2.65791   2.67014   2.67398   2.67965   2.68290
 Alpha virt. eigenvalues --    2.69307   2.70030   2.70651   2.71727   2.72449
 Alpha virt. eigenvalues --    2.72968   2.74146   2.77271   2.77675   2.77844
 Alpha virt. eigenvalues --    2.79051   2.79442   2.80153   2.82608   2.84843
 Alpha virt. eigenvalues --    2.85981   2.86579   2.87257   2.87788   2.88178
 Alpha virt. eigenvalues --    2.88953   2.91280   2.92025   2.92664   2.94333
 Alpha virt. eigenvalues --    2.95383   2.95545   2.97339   2.99982   3.02460
 Alpha virt. eigenvalues --    3.03725   3.04210   3.05623   3.05682   3.07043
 Alpha virt. eigenvalues --    3.11779   3.12937   3.15952   3.19802   3.20495
 Alpha virt. eigenvalues --    3.21281   3.22275   3.24638   3.25169   3.25436
 Alpha virt. eigenvalues --    3.26065   3.26870   3.30744   3.31898   3.32585
 Alpha virt. eigenvalues --    3.38765   3.40646   3.42935   3.43132   3.45016
 Alpha virt. eigenvalues --    3.54129   3.54951   3.58909   3.63284   3.65850
 Alpha virt. eigenvalues --    3.68888   3.74451   3.75293   3.77982   3.78518
 Alpha virt. eigenvalues --    3.79901   3.81324   3.81470   3.81790   3.82530
 Alpha virt. eigenvalues --    3.84384   3.85275   3.85949   3.86658   3.88685
 Alpha virt. eigenvalues --    3.89877   3.90756   3.96576   3.98550   4.01942
 Alpha virt. eigenvalues --    4.05809   4.16223   4.17243   4.19925   4.24386
 Alpha virt. eigenvalues --    4.25872   4.30104   4.31190   4.35047   4.35917
 Alpha virt. eigenvalues --    4.40583   4.43632   4.69751   4.89271   4.94448
 Alpha virt. eigenvalues --    4.95455   5.02350   5.04940   5.08440   5.12760
 Alpha virt. eigenvalues --    5.18100   5.25762   5.34774   5.37711   5.67332
 Alpha virt. eigenvalues --    5.71403   5.84814   5.97190  23.78377  23.81840
 Alpha virt. eigenvalues --   23.87769  23.88529  23.91259  23.95275  23.96002
 Alpha virt. eigenvalues --   23.97594  23.98240  23.99448  24.01464  24.02771
 Alpha virt. eigenvalues --   24.04188  24.07314  35.53180  35.71810  49.96382
 Alpha virt. eigenvalues --   49.99146  50.03494  50.10125
  Beta  occ. eigenvalues --  -19.66549 -19.62330 -19.61934 -19.61554 -14.83739
  Beta  occ. eigenvalues --  -14.70073 -10.67490 -10.59849 -10.59448 -10.59341
  Beta  occ. eigenvalues --  -10.57143 -10.54554 -10.53989 -10.53640 -10.53572
  Beta  occ. eigenvalues --  -10.53553 -10.52722 -10.52638 -10.52589 -10.52422
  Beta  occ. eigenvalues --   -1.22694  -1.18703  -1.14089  -1.13707  -1.02212
  Beta  occ. eigenvalues --   -0.97015  -0.92408  -0.86418  -0.85530  -0.84411
  Beta  occ. eigenvalues --   -0.81183  -0.78527  -0.78154  -0.77622  -0.73715
  Beta  occ. eigenvalues --   -0.69069  -0.67870  -0.66010  -0.65712  -0.61914
  Beta  occ. eigenvalues --   -0.60282  -0.59226  -0.58122  -0.57028  -0.56216
  Beta  occ. eigenvalues --   -0.55830  -0.52834  -0.52685  -0.52140  -0.51634
  Beta  occ. eigenvalues --   -0.50947  -0.49750  -0.49564  -0.47810  -0.47248
  Beta  occ. eigenvalues --   -0.47015  -0.46526  -0.45338  -0.45244  -0.43892
  Beta  occ. eigenvalues --   -0.43619  -0.43294  -0.42750  -0.42113  -0.41543
  Beta  occ. eigenvalues --   -0.41289  -0.40741  -0.40042  -0.39837  -0.39374
  Beta  occ. eigenvalues --   -0.39020  -0.38799  -0.37343  -0.36826  -0.35053
  Beta  occ. eigenvalues --   -0.34451  -0.33160  -0.27939
  Beta virt. eigenvalues --   -0.02659   0.04240   0.06366   0.07447   0.08028
  Beta virt. eigenvalues --    0.08672   0.08870   0.09724   0.10578   0.10695
  Beta virt. eigenvalues --    0.11233   0.11848   0.13280   0.13802   0.14230
  Beta virt. eigenvalues --    0.15030   0.15467   0.16181   0.16455   0.16920
  Beta virt. eigenvalues --    0.17439   0.17904   0.18406   0.18610   0.19530
  Beta virt. eigenvalues --    0.20304   0.20553   0.20825   0.21037   0.21352
  Beta virt. eigenvalues --    0.22118   0.22451   0.22786   0.23297   0.24761
  Beta virt. eigenvalues --    0.25682   0.26179   0.27435   0.28251   0.28766
  Beta virt. eigenvalues --    0.29054   0.29525   0.29927   0.30587   0.31204
  Beta virt. eigenvalues --    0.32237   0.33471   0.34282   0.34821   0.35477
  Beta virt. eigenvalues --    0.35925   0.37351   0.37424   0.39303   0.39875
  Beta virt. eigenvalues --    0.40814   0.41835   0.42197   0.42645   0.43312
  Beta virt. eigenvalues --    0.43987   0.44499   0.45420   0.46510   0.47387
  Beta virt. eigenvalues --    0.48829   0.49231   0.49310   0.50063   0.51229
  Beta virt. eigenvalues --    0.52383   0.52721   0.52982   0.53413   0.54129
  Beta virt. eigenvalues --    0.54407   0.56075   0.56758   0.57865   0.58641
  Beta virt. eigenvalues --    0.58811   0.59514   0.60292   0.61024   0.61298
  Beta virt. eigenvalues --    0.62050   0.62194   0.62739   0.62904   0.63582
  Beta virt. eigenvalues --    0.63693   0.64083   0.64199   0.64551   0.64693
  Beta virt. eigenvalues --    0.65363   0.65524   0.65825   0.66316   0.66755
  Beta virt. eigenvalues --    0.66949   0.67066   0.67743   0.68073   0.68634
  Beta virt. eigenvalues --    0.68899   0.69578   0.70089   0.70727   0.71072
  Beta virt. eigenvalues --    0.71702   0.72814   0.73247   0.73667   0.74745
  Beta virt. eigenvalues --    0.76436   0.76958   0.77936   0.79476   0.79726
  Beta virt. eigenvalues --    0.83059   0.85406   0.87026   0.87759   0.88195
  Beta virt. eigenvalues --    0.89385   0.90999   0.92203   0.93577   0.94871
  Beta virt. eigenvalues --    0.95732   0.96736   0.97670   0.98621   1.00267
  Beta virt. eigenvalues --    1.01201   1.01336   1.01794   1.02372   1.04282
  Beta virt. eigenvalues --    1.06326   1.07550   1.09167   1.10229   1.11638
  Beta virt. eigenvalues --    1.12475   1.14505   1.15778   1.16719   1.19100
  Beta virt. eigenvalues --    1.20377   1.22885   1.24179   1.25208   1.26276
  Beta virt. eigenvalues --    1.27068   1.28039   1.30716   1.31810   1.32737
  Beta virt. eigenvalues --    1.34215   1.35759   1.36729   1.37813   1.38753
  Beta virt. eigenvalues --    1.39513   1.40330   1.41455   1.42075   1.42726
  Beta virt. eigenvalues --    1.43905   1.45723   1.46318   1.47467   1.48546
  Beta virt. eigenvalues --    1.48749   1.49693   1.49893   1.50458   1.50933
  Beta virt. eigenvalues --    1.51558   1.51912   1.52608   1.52900   1.53101
  Beta virt. eigenvalues --    1.53583   1.54223   1.54734   1.55464   1.56689
  Beta virt. eigenvalues --    1.57272   1.57490   1.58085   1.58429   1.59123
  Beta virt. eigenvalues --    1.59873   1.61141   1.61760   1.62075   1.63921
  Beta virt. eigenvalues --    1.64328   1.64782   1.65525   1.65882   1.66923
  Beta virt. eigenvalues --    1.67742   1.68380   1.68921   1.69527   1.69916
  Beta virt. eigenvalues --    1.71071   1.71498   1.72151   1.72611   1.74546
  Beta virt. eigenvalues --    1.74869   1.75052   1.75647   1.75974   1.76326
  Beta virt. eigenvalues --    1.77957   1.78410   1.78670   1.79697   1.80085
  Beta virt. eigenvalues --    1.80567   1.81398   1.82412   1.83026   1.85160
  Beta virt. eigenvalues --    1.85774   1.86313   1.86534   1.87255   1.87876
  Beta virt. eigenvalues --    1.88382   1.89432   1.90960   1.91325   1.92057
  Beta virt. eigenvalues --    1.92445   1.93468   1.94273   1.95645   1.97247
  Beta virt. eigenvalues --    1.98151   1.99016   2.00084   2.02602   2.04120
  Beta virt. eigenvalues --    2.04551   2.06334   2.07310   2.07665   2.08889
  Beta virt. eigenvalues --    2.10015   2.11939   2.12535   2.13359   2.14273
  Beta virt. eigenvalues --    2.15636   2.16193   2.18641   2.19312   2.19676
  Beta virt. eigenvalues --    2.21714   2.22037   2.23004   2.23538   2.24652
  Beta virt. eigenvalues --    2.25452   2.26969   2.28031   2.29297   2.30624
  Beta virt. eigenvalues --    2.32675   2.34688   2.35116   2.35696   2.36181
  Beta virt. eigenvalues --    2.38165   2.39888   2.40917   2.41777   2.43471
  Beta virt. eigenvalues --    2.45059   2.45486   2.46690   2.47203   2.48296
  Beta virt. eigenvalues --    2.49520   2.49906   2.50211   2.50748   2.51503
  Beta virt. eigenvalues --    2.53012   2.53462   2.54967   2.55320   2.55978
  Beta virt. eigenvalues --    2.56364   2.57246   2.57957   2.58517   2.58944
  Beta virt. eigenvalues --    2.59366   2.59878   2.60545   2.61761   2.63471
  Beta virt. eigenvalues --    2.63581   2.65911   2.67117   2.67446   2.68084
  Beta virt. eigenvalues --    2.68364   2.69456   2.70065   2.70689   2.71737
  Beta virt. eigenvalues --    2.72483   2.73002   2.74274   2.77325   2.77739
  Beta virt. eigenvalues --    2.77882   2.79095   2.79500   2.80373   2.82631
  Beta virt. eigenvalues --    2.84981   2.86006   2.86691   2.87552   2.87891
  Beta virt. eigenvalues --    2.88244   2.89405   2.91325   2.92803   2.93280
  Beta virt. eigenvalues --    2.94432   2.95539   2.96555   2.98140   3.00488
  Beta virt. eigenvalues --    3.03338   3.03829   3.04398   3.05737   3.06109
  Beta virt. eigenvalues --    3.07132   3.11795   3.13128   3.16110   3.20028
  Beta virt. eigenvalues --    3.20562   3.21713   3.22290   3.24823   3.25322
  Beta virt. eigenvalues --    3.25592   3.26111   3.26874   3.31007   3.32247
  Beta virt. eigenvalues --    3.33738   3.38913   3.40693   3.43002   3.43241
[...]
 0007440,0.00012901,-0.00006260,-0.00030253,0.00019562,0.00066611,-0.00
 030760,-0.00020966,0.00098495,-0.00114475,0.00010103,0.31923804,0.0000
 1293,0.00004177,0.00000239,-0.00000069,-0.00000109,-0.00000102,-0.0000
 1454,-0.00003893,-0.00002674,-0.00002958,0.00004129,0.00000313,-0.0000
 5463,-0.00001594,0.00004340,0.00000455,-0.00000216,-0.00000051,-0.0000
 1722,-0.00002735,-0.00001483,-0.00008042,0.00000310,0.00005027,0.00023
 244,-0.00001475,-0.00013179,0.00000961,-0.00000468,0.00001284,0.000009
 95,0.00000576,0.00000541,-0.00002951,-0.00034198,0.00006827,0.00001603
 ,0.00001148,0.00001527,0.00000192,0.00000450,0.00000442,-0.00000255,0.
 00000207,0.00000080,0.00000211,-0.00001310,0.00000515,-0.00000340,0.00
 004422,0.00000198,-0.00000013,0.00000671,0.00000100,-0.00002397,-0.000
 00109,-0.00000685,-0.00003216,0.00010363,0.00004455,-0.00000167,0.0000
 0024,-0.00000026,-0.00000129,0.00000173,0.00000553,-0.00000075,-0.0000
 0116,-0.00000183,-0.00001377,-0.00000230,0.,-0.00001330,-0.00076104,-0
 .00082148,-0.00000369,0.00001799,0.00013039,0.00001283,0.00018402,-0.0
 0000115,0.00000039,0.00000175,0.00000943,-0.00000190,0.00000855,-0.000
 00361,-0.00001565,-0.00000261,-0.00000496,-0.00030803,-0.00002070,-0.0
 0010146,-0.00000288,-0.00043048,0.00033175,0.00906813,0.00242026,-0.00
 352046,-0.00073480,-0.00012623,0.00032555,0.00013654,0.00102703,-0.000
 96573,-0.03226766,-0.00461474,-0.00350853,-0.02383544,-0.05461342,0.00
 392913,0.00037730,0.00062396,0.00001712,0.00001747,0.00017139,-0.00005
 621,0.00022768,0.00008025,-0.00002731,0.00016618,-0.00014314,0.0002168
 0,0.00053262,0.00169589,-0.00012823,-0.00198294,-0.00569624,0.00005374
 ,0.02801194,0.05726751,0.00000328,0.00001140,0.00000405,0.00000022,0.0
 0000007,-0.00000078,-0.00001039,-0.00000890,0.00001985,0.00001941,0.00
 000522,-0.00005795,-0.00004874,-0.00016541,-0.00002285,-0.00000579,-0.
 00000073,-0.00000799,-0.00000427,-0.00000966,-0.00001060,-0.00004722,0
 .00001919,0.00001950,0.00007075,0.00003880,-0.00012751,-0.00001711,0.0
 0005301,0.00007886,-0.00000329,-0.00000032,0.00000192,-0.00011816,-0.0
 0013913,0.00012378,0.00000362,-0.00000951,0.00000254,-0.00000046,-0.00
 000341,0.00000319,-0.00000034,0.00000088,0.00000076,-0.00000010,-0.000
 00965,0.00000668,0.00000416,0.00002395,0.00000097,-0.00000193,-0.00003
 258,0.00000921,-0.00000631,0.00001642,0.00000234,0.00003291,0.00001680
 ,-0.00014033,-0.00000018,0.00000103,0.00000067,0.00000025,-0.00000022,
 -0.00000037,0.00000059,-0.00000160,0.00000157,-0.00000493,-0.00000174,
 -0.00000053,0.00008805,-0.00062800,-0.00024916,-0.00001686,0.00005624,
 -0.00006952,0.00001619,0.00006099,-0.00003480,-0.00000503,0.00000414,0
 .00000166,0.00000177,0.00000852,-0.00000613,-0.00000757,-0.00000087,-0
 .00000174,-0.00008478,-0.00066307,0.00024712,-0.00104889,-0.00133266,-
 0.00011731,0.03801556,0.00121872,-0.01077751,0.00203957,-0.00234052,0.
 00246679,0.00023751,-0.00001625,0.00017513,-0.00765060,-0.00132548,-0.
 00118532,-0.01568666,0.00346193,-0.05098294,0.00059214,0.00198532,-0.0
 0080686,-0.00059953,0.00042159,-0.00037952,0.00005135,-0.00000919,0.00
 011323,0.00006361,0.00012301,0.00027404,-0.00012516,0.00027657,0.00022
 335,-0.00026721,-0.00210307,0.00079603,0.00636314,0.00232477,0.0584802
 0,0.00000838,0.00002495,0.00000211,-0.00000085,-0.00000064,-0.00000067
 ,-0.00000888,-0.00002287,-0.00001999,-0.00002345,0.00001644,0.00000190
 ,-0.00000159,0.00003126,0.00004897,0.00000392,-0.00000111,0.00000113,-
 0.00000539,-0.00001541,-0.00000706,-0.00000700,-0.00000485,0.00002219,
 0.00004591,-0.00007615,-0.00003474,-0.00019022,0.00003049,0.00013227,0
 .00000763,0.00000372,0.00000268,0.00011185,-0.00004344,0.00004285,0.00
 000799,0.00000934,0.00000416,0.00000207,0.00000358,0.00000273,-0.00000
 178,0.00000064,0.00000067,0.00000115,-0.00000470,0.00000076,-0.0000042
 1,0.00001090,0.00000165,0.00000484,-0.00006843,-0.00001988,0.00001024,
 0.00009557,0.00000724,0.00008682,0.00027878,0.00013832,-0.00000091,-0.
 00000015,-0.00000046,-0.00000079,0.00000160,0.00000435,-0.00000086,-0.
 00000021,-0.00000108,-0.00000635,0.00000028,0.00000093,-0.00006531,0.0
 0026872,-0.00018231,-0.00008248,-0.00010511,0.00012277,0.00000957,0.00
 012358,0.00003967,0.00000213,-0.00000035,0.00000609,-0.00000229,0.0000
 0118,0.00000219,-0.00000712,-0.00000075,-0.00000285,0.00038124,0.00023
 808,0.00013436,0.00037700,0.00026573,-0.00084422,0.00585076,-0.0115816
 4,0.01051715,-0.00001491,-0.00061117,0.00317033,0.00053433,-0.00154219
 ,0.00137084,0.00202854,-0.00516389,0.00616110,-0.09351405,0.06899506,-
 0.07451769,-0.00085468,-0.00129917,0.00086304,0.00015635,-0.00041778,0
 .00041424,0.00005441,-0.00018437,0.00013964,0.00003210,-0.00027288,0.0
 0031059,0.00010580,0.00010444,-0.00013728,0.00086494,0.00026150,0.0005
 4296,-0.01172808,0.02015763,-0.02104639,0.09551909,0.00001668,0.000030
 29,0.00000432,-0.00000125,0.00000200,0.00000048,-0.00001270,-0.0000311
 6,-0.00002608,0.00001299,0.00003182,0.00002499,0.00000459,0.00006706,0
 .00004885,0.00000954,-0.00000398,0.00000377,-0.00002272,-0.00000519,-0
 .00001915,0.00002826,0.00000155,0.00005103,-0.00001970,0.00003028,-0.0
 0002471,0.00009640,-0.00032868,-0.00023199,0.00001265,0.00000519,0.000
 00359,-0.00001547,-0.00001229,0.00004201,0.00000375,0.00001224,0.00001
 236,0.00000186,0.00000593,0.00000236,-0.00000215,0.00000078,-0.0000008
 1,0.00000149,-0.00000123,-0.00000198,-0.00000263,0.00000389,0.00000039
 ,-0.00000480,0.00007477,0.00011848,0.00000482,0.00002296,0.00002215,0.
 00032395,-0.00047495,-0.00054078,-0.00000135,-0.00000038,-0.00000096,-
 0.00000181,0.00000175,0.00000535,-0.00000104,-0.00000012,-0.00000245,0
 .00000016,-0.00000254,0.00000005,-0.00003215,0.00012922,-0.00001368,-0
 .00001165,0.00003208,0.00007491,0.00001924,0.00002986,-0.00000892,0.00
 000565,-0.00000116,0.00000442,-0.00000133,0.00000469,-0.00000015,-0.00
 000377,-0.00000073,-0.00000281,0.00012669,-0.00001402,0.00010933,0.000
 24149,0.00012483,-0.00019080,-0.00361138,0.00714240,-0.00685122,0.0005
 4850,-0.00105109,-0.00198501,-0.00177621,-0.00447162,-0.00061512,0.011
 02374,-0.01449565,0.02051518,0.06480245,-0.15143410,0.11437912,-0.0004
 6170,-0.00005941,0.00001151,-0.00007596,0.00034238,-0.00000047,0.00017
 324,-0.00066015,0.00128477,0.00018809,-0.00021077,0.00030618,0.0001213
 8,-0.00040338,-0.00037875,-0.00003461,0.00186353,-0.00007935,-0.001590
 59,0.00273657,-0.00252553,-0.06974384,0.16136127,0.00002652,0.00004765
 ,0.00001326,-0.00000125,0.00000391,-0.00000142,-0.00004495,-0.00002437
 ,0.00000459,0.00003490,-0.00000221,-0.00005456,0.00006534,-0.00017261,
 0.00006661,0.00000570,-0.00000371,-0.00000679,-0.00002181,-0.00000863,
 -0.00004420,0.00008116,0.00000401,0.00010421,-0.00012422,0.00001068,-0
 .00020336,-0.00032811,-0.00030698,0.00037766,0.00001026,0.00000443,0.0
 0000848,0.00005767,-0.00003424,0.00001101,0.00000830,0.00000562,-0.000
 00266,0.00000232,0.00000279,0.00000741,-0.00000250,-0.00000045,0.00000
 039,0.00000034,-0.00000913,0.00000040,-0.00000226,-0.00000378,0.000002
 60,0.00002599,-0.00008497,-0.00004199,0.00005590,0.00029357,0.00001745
 ,0.00043454,-0.00021188,-0.00059017,-0.00000031,-0.00000020,-0.0000005
 6,-0.00000146,0.00000199,0.00000567,-0.00000185,-0.00000117,-0.0000000
 3,0.00000031,0.00000034,0.00000452,-0.00006227,0.00002610,-0.00019083,
 -0.00009676,-0.00010503,0.00005866,0.00003489,0.00007628,0.00004635,0.
 00000047,0.00000024,0.00000631,-0.00000372,-0.00000493,0.00000125,-0.0
 0000800,-0.00000027,-0.00000321,-0.00076891,0.00034130,-0.00054900,-0.
 00053105,-0.00012323,-0.00027569,-0.00600836,0.01965500,-0.02310750,0.
 00131655,-0.00236552,-0.00440480,-0.00040045,-0.00251684,-0.00086924,0
 .00347429,-0.00526123,0.00770657,-0.06900705,0.11046738,-0.16844646,0.
 00116177,0.00038874,0.00042354,-0.00040401,0.00092316,-0.00077127,-0.0
 0000959,-0.00001074,0.00053949,-0.00001954,0.00013440,0.00007641,0.000
 28429,0.00048897,-0.00025461,0.00030804,0.00060351,0.00026225,-0.00175
 742,0.00129244,0.00027800,0.07283565,-0.12372390,0.19019799,-0.0000070
 5,0.00004778,-0.00000372,0.00000152,-0.00000701,-0.00000204,0.00010324
 ,-0.00046916,0.00005158,-0.00042174,-0.00024431,-0.00085385,-0.0016709
 5,-0.00118845,0.00025354,-0.00006719,-0.00003147,-0.00007278,-0.000003
 24,-0.00007200,-0.00000069,-0.00033981,0.00003569,-0.00003094,0.000652
 87,-0.00037811,-0.00002172,0.00026064,0.00060129,0.00035721,-0.0000033
 2,0.00001371,0.00000161,0.00023260,-0.00098481,0.00038959,0.00005523,0
 .00002757,0.00009168,-0.00000465,-0.00002679,0.00001529,-0.00000548,0.
 00000689,-0.00000178,0.00000984,-0.00002400,0.00001949,0.00000283,0.00
 012965,0.00000056,-0.00008235,-0.00032049,0.00008394,-0.00009244,-0.00
 017331,-0.00000415,-0.00039199,0.00087127,-0.00130470,-0.00000438,0.00
 000160,-0.00000120,-0.00000175,0.00000192,0.00000754,0.00000454,-0.000
 00319,0.00000203,-0.00004034,-0.00001004,-0.00000433,-0.00224355,-0.00
 093656,0.00088819,0.00003997,0.00027160,-0.00018149,0.00005579,0.00041
 845,-0.00016410,0.00000839,0.00002427,0.00001996,0.00002873,0.00012946
 ,0.00002531,-0.00003679,-0.00001236,-0.00001029,0.00089111,-0.00190121
 ,0.00195329,0.00069757,-0.00223603,0.00076048,-0.05871102,-0.13756967,
 -0.05837370,-0.00248987,0.01373772,0.00172136,-0.00035213,0.00297525,0
 .00003933,-0.00076046,0.00126650,0.00193096,-0.00002088,0.01645053,0.0
 0875326,0.00090019,0.00465966,-0.00190818,0.00005394,-0.00059197,0.000
 52845,-0.00012537,0.00023400,0.00007695,0.00009733,0.00036296,0.000206
 82,0.00059212,0.00043186,0.00009294,0.00024726,0.00032763,0.00017618,0
 .00103403,0.00051967,-0.00069141,0.00026842,-0.00031058,-0.00059214,0.
 06173250,0.00018069,0.00035398,-0.00007977,-0.00003078,-0.00001325,0.0
 0001741,0.00005782,-0.00063591,-0.00122493,-0.00172303,-0.00170438,0.0
 0119728,0.00011153,0.00030399,-0.00098367,0.00026891,-0.00007519,0.000
 30018,-0.00031423,-0.00021045,0.00004251,0.00015165,-0.00022915,-0.000
 08153,-0.00014358,-0.00097696,0.00100885,0.00018750,-0.00064236,-0.000
 22937,0.00032380,0.00012866,-0.00000450,-0.00028256,-0.00019339,-0.000
 20283,0.00003838,0.00048550,0.00040035,0.00008365,0.00020475,-0.000011
 59,-0.00004571,0.00000880,-0.00002625,0.00005562,0.00014130,-0.0000991
 8,-0.00002213,0.00005092,0.00003082,-0.00004871,0.00029850,-0.00024264
 ,-0.00001706,0.00019749,-0.00000303,0.00127249,-0.00071627,0.00176578,
 -0.00002546,-0.00002526,-0.00003972,-0.00001709,0.00007481,0.00015380,
 -0.00001502,0.00002899,-0.00009918,0.00000935,-0.00002280,0.00000463,-
 0.00140080,0.00050167,0.00055891,0.00019925,0.00001080,-0.00022379,0.0
 0016834,0.00012988,-0.00006552,0.00023165,-0.00006698,0.00011606,-0.00
 010263,0.00006419,-0.00004035,-0.00001170,0.00000045,-0.00005401,-0.00
 132517,0.00107196,-0.00147826,-0.00120435,0.00161020,-0.00136605,-0.09
 178801,-0.31897333,-0.12410643,-0.00828528,-0.02414639,-0.00795275,0.0
 0062667,-0.00226020,0.00147412,-0.00006597,-0.00007418,0.00128702,0.00
 037141,0.00139170,-0.00232382,-0.00027206,-0.00100694,0.00086495,0.000
 18770,-0.00062594,0.00005732,0.00011562,-0.00030998,-0.00026274,-0.000
 19156,-0.00044650,-0.00021726,-0.00023254,0.00066099,0.00003147,-0.000
 09113,-0.00012291,0.00001202,-0.00122473,0.00032658,0.00116085,0.00028
 008,-0.00040424,0.00015752,0.10391029,0.34574444,-0.00000813,-0.000020
 58,-0.00008159,-0.00001156,-0.00001667,0.00001419,0.00011897,-0.000204
 29,-0.00065502,-0.00062350,0.00069180,0.00120182,-0.00002964,-0.000470
 01,-0.00318871,0.00010057,-0.00002458,0.00018658,-0.00005103,-0.000052
 23,0.00016957,-0.00002308,-0.00014507,-0.00037708,0.00026497,0.0002835
 8,0.00102748,0.00066422,0.00067884,-0.00015983,0.00010481,0.00004373,-
 0.00004806,-0.00056485,0.00065072,-0.00084729,-0.00000687,0.00021032,0
 .00020730,0.00003707,0.00008844,-0.00003488,-0.00001003,0.00000113,-0.
 00001642,0.00001448,0.00010006,-0.00004416,-0.00000075,-0.00003858,0.0
 0001257,-0.00009044,-0.00029783,0.00002628,-0.00001733,-0.00045412,0.0
 0009804,-0.00134934,0.00110342,-0.00083851,-0.00000807,-0.00001083,-0.
 00001639,-0.00000150,0.00002137,0.00005571,-0.00000522,0.00000258,-0.0
 0003605,0.00001861,-0.00000345,-0.00000543,0.00124393,0.00011716,0.000
 49752,0.00014149,-0.00010163,-0.00005600,-0.00009502,-0.00039506,0.000
 15736,0.00011204,-0.00002943,0.00002812,-0.00003741,0.00006977,-0.0000
 0707,0.00003347,0.00000734,-0.00000669,-0.00050656,-0.00001677,-0.0001
 0673,-0.00079819,-0.00096700,-0.00104657,-0.03959914,-0.13131327,-0.12
 628123,0.00677075,0.02090257,0.01227388,-0.00165515,0.00328224,-0.0027
 9052,0.00324172,-0.00098579,-0.00568933,-0.01288249,-0.02655116,-0.010
 41064,0.00019806,0.00239210,0.00048937,0.00035119,0.00017042,-0.000727
 82,0.00002268,0.00028530,0.00029186,-0.00002048,0.00088729,0.00071750,
 -0.00046834,-0.00164680,0.00006368,-0.00001683,0.00022851,0.00005814,-
 0.00010834,0.00046890,0.00172677,-0.00029143,0.00022214,-0.00039581,0.
 04584156,0.13081562,0.13459230,-0.00000587,-0.00000969,0.00000151,0.00
 000090,0.00000005,-0.00000014,-0.00000479,0.00002100,0.00001805,0.0000
 1683,-0.00000389,-0.00000472,0.00006101,-0.00007069,-0.00000291,-0.000
 00623,0.00000247,-0.00000604,0.00001046,0.00000265,0.00000242,0.000008
 36,-0.00000134,-0.00000321,-0.00003322,0.00000712,0.00000676,0.0000030
 0,0.00000213,-0.00000287,-0.00000324,-0.00000170,-0.00000003,0.0000356
 9,0.00003408,0.00000517,0.00000076,0.00000097,-0.00002246,0.00000036,-
 0.00000081,0.00000106,0.00000339,-0.00000147,0.00000129,0.00000058,0.0
 0000032,-0.00000194,0.00000044,-0.00000754,-0.00000215,0.00000050,-0.0
 0000039,0.00000254,0.00000208,-0.00000346,0.00000070,-0.00000712,-0.00
 000119,-0.00000350,0.00000040,-0.00000035,0.00000095,-0.00000071,-0.00
 000265,-0.00000377,-0.00000056,0.00000069,0.00000289,0.00000056,0.0000
 0224,-0.00000082,-0.00001826,0.00004578,-0.00003664,0.00000010,-0.0000
 1800,0.00001367,-0.00000739,-0.00001614,-0.00000026,-0.00000342,-0.000
 00616,-0.00000290,-0.00000519,-0.00001964,0.00000134,0.00000299,-0.000
 00091,0.00000431,-0.41973275,-0.06704897,-0.17676652,-0.00137263,-0.00
 492607,0.00595270,0.00016963,-0.00040634,0.00005877,0.00317057,0.00137
 345,-0.00124040,-0.00027446,-0.00045732,0.00025380,0.00018972,0.000125
 19,0.00000305,-0.00010081,0.00008416,-0.00012784,-0.01238105,0.0066878
 2,-0.01356360,0.00052984,-0.00002101,0.00051322,0.00008526,0.00000250,
 -0.00004562,0.00009935,-0.00024786,-0.00015032,-0.00000549,-0.00000771
 ,0.00003005,0.00001700,-0.00003388,0.00007523,-0.00000557,-0.00004536,
 -0.00010475,0.00004569,-0.00002823,-0.00002722,-0.00009391,0.00004891,
 0.00000011,0.42960721,0.00000310,0.00000963,-0.00000228,-0.00000055,-0
 .00000077,0.00000032,0.00000564,-0.00001141,-0.00000880,-0.00001056,0.
 00000252,-0.00000054,-0.00003975,0.00003559,-0.00000357,-0.00000162,-0
 .00000216,-0.00000038,-0.00000448,-0.00000717,0.00000114,-0.00000911,-
 0.00000067,0.00000413,0.00002514,-0.00000300,-0.00000522,0.00000165,0.
 00000474,0.00000193,0.00000168,0.00000002,0.00000015,-0.00002765,-0.00
 002218,-0.00000652,-0.00000418,-0.00000538,0.00001273,0.00000149,0.000
 00125,0.00000091,-0.00000068,0.00000148,-0.00000100,0.00000085,-0.0000
 0054,-0.00000003,-0.00000033,0.00000631,0.00000064,-0.00000062,-0.0000
 0111,-0.00000092,-0.00000319,0.00000065,-0.00000005,0.00000575,0.00000
 810,-0.00000034,-0.00000131,0.00000081,-0.00000036,0.00000021,0.000000
 82,0.00000170,0.00000168,-0.00000027,-0.00000206,-0.00000187,-0.000000
 60,0.00000017,0.00001686,-0.00003103,0.00003217,-0.00000042,0.00001291
 ,-0.00001001,0.00000280,0.00000877,0.00000017,0.00000127,0.00000260,0.
 00000216,0.00001161,0.00000671,-0.00000096,-0.00000187,-0.00000023,-0.
 00000170,-0.10165585,-0.05351356,-0.02970393,-0.00285371,0.00042556,-0
 .00581351,0.00110324,-0.00016826,0.00094944,-0.00127022,-0.00269062,0.
 00379984,0.00033458,0.00043317,-0.00009901,-0.00016435,-0.00008465,0.0
 0007993,0.00020203,-0.00002296,-0.00019384,0.03984018,0.00683121,0.020
 02793,-0.00036850,-0.00023747,-0.00016886,0.00002751,0.00003560,0.0000
 9638,-0.00002578,0.00016753,0.00023383,0.00000868,0.00000915,-0.000012
 56,-0.00001655,0.00002525,-0.00005786,-0.00007189,0.00004487,0.0000380
 7,-0.00004245,0.00000951,0.00004597,0.00003431,0.00009237,0.00001985,0
 .06494722,0.04862687,-0.00000336,-0.00000939,-0.00000013,0.00000024,0.
 00000057,0.00000056,-0.00000679,0.00002046,0.00001488,0.00001409,-0.00
 000169,-0.00000264,0.00006957,-0.00005808,0.00000048,-0.00000170,0.000
 00175,-0.00000406,0.00000644,0.00000570,0.00000270,0.00001304,-0.00000
 121,-0.00000376,-0.00003727,0.00000786,0.00001088,-0.00000101,-0.00000
 804,-0.00000449,-0.00000304,-0.00000404,0.00000132,0.00004085,0.000032
 90,0.00001125,0.00000269,0.00000069,-0.00002737,-0.00000065,-0.0000010
 4,0.00000003,0.00000208,-0.00000154,0.00000113,-0.00000036,0.00000091,
 -0.00000198,0.00000028,-0.00000872,-0.00000133,0.00000087,0.00000274,0
 .00000061,0.00000415,-0.00000027,0.00000042,-0.00000785,-0.00001190,0.
 00000408,0.00000094,0.00000017,-0.00000035,-0.00000014,-0.00000191,-0.
 00000293,-0.00000096,0.00000122,0.00000174,0.00000196,0.00000140,-0.00
 000048,-0.00002504,0.00003785,-0.00005295,-0.00000062,-0.00002089,0.00
 001358,-0.00000503,-0.00001287,0.00000007,-0.00000278,-0.00000774,-0.0
 0000282,-0.00001359,-0.00002419,0.00001035,0.00000393,0.00000309,0.000
 00207,-0.15284383,-0.01074399,-0.09154283,0.00402687,-0.00706400,0.001
 46221,-0.00129687,0.00056879,-0.00035355,0.00077394,0.00501050,0.00074
 746,0.00058739,0.00033079,0.00014278,0.00001792,0.00003829,0.00007689,
 -0.00018822,0.00002423,0.00019590,-0.03603756,0.00183971,-0.01800536,-
 0.00053138,-0.00046778,0.00034992,0.00008516,0.00003566,0.00012912,0.0
 0004558,-0.00014387,-0.00008427,0.00000099,-0.00002040,0.00002235,0.00
 000477,0.00000643,0.00002890,0.00013862,-0.00004151,-0.00007846,0.0000
 6050,-0.00002310,-0.00000692,-0.00006589,-0.00003828,-0.00002823,0.185
 17105,0.01074473,0.10697323\\-0.00000383,0.00000136,-0.00000085,-0.000
 00275,0.00000228,-0.00000068,0.00000257,0.00001215,0.00000417,-0.00001
 115,-0.00000872,-0.00000962,0.00000145,-0.00000408,-0.00000046,-0.0000
 0630,0.00000025,-0.00000121,0.00000183,-0.00000186,0.00000655,-0.00000
 394,0.00000290,-0.00000986,-0.00000182,0.00000081,0.00000690,0.0000015
 3,-0.00000111,-0.00000210,-0.00000451,0.00000422,-0.00000075,0.0000068
 5,-0.00000078,0.00001155,-0.00000184,-0.00000477,0.00000048,-0.0000027
 4,0.,-0.00000028,-0.00000374,-0.00000076,-0.00000472,0.00000256,-0.000
 00429,-0.00000018,0.00000019,-0.00000175,0.00000011,0.00000182,-0.0000
 0218,-0.00000183,0.00000001,-0.00000179,-0.00000253,-0.00000099,-0.000
 00042,-0.00000261,-0.00000424,-0.00000035,-0.00000246,-0.00000366,-0.0
 0000070,-0.00000201,-0.00000398,0.00000011,-0.00000177,-0.00000071,0.0
 0000310,-0.00000157,0.00000030,-0.00000122,-0.00000180,0.00000025,-0.0
 0000162,-0.00000279,-0.00000098,0.00000274,-0.00000382,-0.00000270,0.0
 0000282,0.00000079,-0.00000414,0.00000258,0.00000154,-0.00000072,0.000
 00539,0.00000191,0.00000118,-0.00000535,0.00000730,0.00000334,0.000003
 88,0.00000131,0.00002762,-0.00001211,-0.00001075,-0.00000922,0.0000072
 0,-0.00000668,-0.00000528,0.00000033,-0.00000155,0.00001001,-0.0000066
 5,0.00000086,-0.00000967,0.00000034,0.00001559,0.00000295,0.00000627,-
 0.00000068,-0.00000011,0.00000080,0.00000270,0.00000809,-0.00000574,0.
 00000133,0.00000710,0.00000431,-0.00000088,0.00000342,-0.00000382,0.00
 000190,0.00000303,0.00000275,0.00000327,0.00000616,-0.00000090,-0.0000
 0004,0.00000724,-0.00000061,-0.00000151,-0.00001117,0.00000328,0.00000
 418,0.00000068,0.00000171,0.00000354\\\@


 WHAT THE SLIME CONTAINS, THE GLOWING REVEALS
 BY THE FLAME'S BRIGHT HUE WHEN YOU IGNITE IT.
   --  LEONARD THURNEYSSER, 1531-1596
 DESCRIBING HIS FLAME PHOTOLYSIS ANALYTIC METHOD
 Job cpu time:       1 days  2 hours 33 minutes 40.0 seconds.
 Elapsed time:       0 days  0 hours 50 minutes  1.5 seconds.
 File lengths (MBytes):  RWF=   2299 Int=      0 D2E=      0 Chk=     45 Scr=      1
 Normal termination of Gaussian 16 at Tue Dec 22 15:32:19 2020.
