 Entering Gaussian System, Link 0=g16
 Input=Tem_Prop_3.gjf
 Output=Tem_Prop_3.log
 Initial command:
 /share/apps/g16/l1.exe "/backup/31634.cluster.hpc/Gau-116631.inp" -scrdir="/backup/31634.cluster.hpc/"
 Entering Link 1 = /share/apps/g16/l1.exe PID=    116632.
  
 Copyright (c) 1988,1990,1992,1993,1995,1998,2003,2009,2016,
            Gaussian, Inc.  All Rights Reserved.
  
 This is part of the Gaussian(R) 16 program.  It is based on
 the Gaussian(R) 09 system (copyright 2009, Gaussian, Inc.),
 the Gaussian(R) 03 system (copyright 2003, Gaussian, Inc.),
 the Gaussian(R) 98 system (copyright 1998, Gaussian, Inc.),
 the Gaussian(R) 94 system (copyright 1995, Gaussian, Inc.),
 the Gaussian 92(TM) system (copyright 1992, Gaussian, Inc.),
 the Gaussian 90(TM) system (copyright 1990, Gaussian, Inc.),
 the Gaussian 88(TM) system (copyright 1988, Gaussian, Inc.),
 the Gaussian 86(TM) system (copyright 1986, Carnegie Mellon
 University), and the Gaussian 82(TM) system (copyright 1983,
 Carnegie Mellon University). Gaussian is a federally registered
 trademark of Gaussian, Inc.
  
 This software contains proprietary and confidential information,
 including trade secrets, belonging to Gaussian, Inc.
  
 This software is provided under written license and may be
 used, copied, transmitted, or stored only in accord with that
 written license.
  
 The following legend is applicable only to US Government
 contracts under FAR:
  
                    RESTRICTED RIGHTS LEGEND
  
 Use, reproduction and disclosure by the US Government is
 subject to restrictions as set forth in subparagraphs (a)
 and (c) of the Commercial Computer Software - Restricted
 Rights clause in FAR 52.227-19.
  
 Gaussian, Inc.
 340 Quinnipiac St., Bldg. 40, Wallingford CT 06492
  
  
 ---------------------------------------------------------------
 Warning -- This program may not be used in any manner that
 competes with the business of Gaussian, Inc. or will provide
 assistance to any competitor of Gaussian, Inc.  The licensee
 of this program is prohibited from giving any competitor of
 Gaussian, Inc. access to this program.  By using this program,
 the user acknowledges that Gaussian, Inc. is engaged in the
 business of creating and licensing software in the field of
 computational chemistry and represents and warrants to the
 licensee that it is not a competitor of Gaussian, Inc. and that
 it will not use this program in any manner prohibited above.
 ---------------------------------------------------------------
  

 Cite this work as:
 Gaussian 16, Revision A.03,
 M. J. Frisch, G. W. Trucks, H. B. Schlegel, G. E. Scuseria, 
 M. A. Robb, J. R. Cheeseman, G. Scalmani, V. Barone, 
 G. A. Petersson, H. Nakatsuji, X. Li, M. Caricato, A. V. Marenich, 
 J. Bloino, B. G. Janesko, R. Gomperts, B. Mennucci, H. P. Hratchian, 
 J. V. Ortiz, A. F. Izmaylov, J. L. Sonnenberg, D. Williams-Young, 
 F. Ding, F. Lipparini, F. Egidi, J. Goings, B. Peng, A. Petrone, 
 T. Henderson, D. Ranasinghe, V. G. Zakrzewski, J. Gao, N. Rega, 
 G. Zheng, W. Liang, M. Hada, M. Ehara, K. Toyota, R. Fukuda, 
 J. Hasegawa, M. Ishida, T. Nakajima, Y. Honda, O. Kitao, H. Nakai, 
 T. Vreven, K. Throssell, J. A. Montgomery, Jr., J. E. Peralta, 
 F. Ogliaro, M. J. Bearpark, J. J. Heyd, E. N. Brothers, K. N. Kudin, 
 V. N. Staroverov, T. A. Keith, R. Kobayashi, J. Normand, 
 K. Raghavachari, A. P. Rendell, J. C. Burant, S. S. Iyengar, 
 J. Tomasi, M. Cossi, J. M. Millam, M. Klene, C. Adamo, R. Cammi, 
 J. W. Ochterski, R. L. Martin, K. Morokuma, O. Farkas, 
 J. B. Foresman, and D. J. Fox, Gaussian, Inc., Wallingford CT, 2016.
 
 ******************************************
 Gaussian 16:  ES64L-G16RevA.03 25-Dec-2016
                22-Dec-2020 
 ******************************************
 %mem=2GB
 %nprocshared=32
 Will use up to   32 processors via shared memory.
 %chk=Tem_Prop_3.chk
 -----------------------------------------------------
 # opt freq 6-311g(d,p) scrf=(solvent=water,pcm) m062x
 -----------------------------------------------------
 1/18=20,19=15,26=3,38=1/1,3;
 2/9=110,12=2,17=6,18=5,40=1/2;
 3/5=4,6=6,7=101,11=2,25=1,30=1,70=2201,71=1,72=1,74=-55/1,2,3;
 4//1;
 5/5=2,38=5,53=1/2;
 6/7=2,8=2,9=2,10=2,28=1/1;
 7//1,2,3,16;
 1/18=20,19=15,26=3/3(2);
 2/9=110/2;
 99//99;
 2/9=110/2;
 3/5=4,6=6,7=101,11=2,25=1,30=1,70=2205,71=1,72=1,74=-55/1,2,3;
 4/5=5,16=3,69=1/1;
 5/5=2,38=5,53=1/2;
 7//1,2,3,16;
 1/18=20,19=15,26=3/3(-5);
 2/9=110/2;
 6/7=2,8=2,9=2,10=2,19=2,28=1/1;
 99/9=1/99;
 -------------------
 Title Card Required
 -------------------
 Symbolic Z-matrix:
 Charge =  0 Multiplicity = 2
 O                    0     4.81305  -0.58479  -1.28199  L 
 H                    0     5.02745  -1.52107  -1.3341   L 
 C                    0     1.78356  -0.91603   0.98719  L 
 N                    0     1.28329   0.46665   0.71924  L 
 O                    0     0.18184   0.77443   1.27574  L    H        43    0.        0.        0.        0. 
 C                    0     3.22642  -1.0582    0.49249  L 
 C                    0     3.45232  -0.46656  -0.89006  L 
 C                    0     3.13994   1.0153   -0.83238  L 
 C                    0     1.68951   1.31466  -0.44307  L 
 C                    0     1.57654   2.77553  -0.0049   L 
 C                    0     1.74464  -1.13192   2.50064  L 
 C                    0     0.7283    1.06633  -1.61425  L 
 C                    0     0.8537   -1.93226   0.30984  L 
 H                    0     3.48536  -2.12145   0.50359  L 
 H                    0     3.90605  -0.54695   1.18262  L 
 H                    0     3.34078   1.48006  -1.8009   L 
 H                    0     3.81979   1.46697  -0.10175  L 
 H                    0     1.93835   3.41754  -0.81093  L 
 H                    0     2.18333   2.9549    0.88501  L 
 H                    0     0.54092   3.0326    0.21424  L 
 H                    0     2.33071  -0.36409   3.00967  L 
 H                    0     2.17174  -2.11002   2.7321   L 
 H                    0     0.72009  -1.09692   2.86902  L 
 H                    0     2.81188  -0.96304  -1.62971  L 
 H                    0    -0.29691   1.28683  -1.30795  L 
 H                    0     0.99309   1.73214  -2.43908  L 
 H                    0     0.77792   0.03968  -1.98122  L 
 H                    0     1.18191  -2.9434    0.56102  L 
 H                    0    -0.16665  -1.80301   0.67503  L 
 H                    0     0.85067  -1.83672  -0.77735  L 
 O                    0    -6.36108   1.21087   3.56535  H 
 O                    0    -5.5024    1.74319   1.5702   H 
 N                    0    -3.10936   0.39582   2.12777  H 
 C                    0    -4.14555   0.51581   3.15269  H 
 C                    0    -3.50518   1.31067   4.32429  H 
 C                    0    -2.02208   1.36946   3.9423   H 
 C                    0    -2.08279   1.40723   2.41993  H 
 C                    0    -5.38299   1.22213   2.6493   H 
 H                    0    -4.45787  -0.47192   3.50113  H 
 H                    0    -3.68213   0.81385   5.27644  H 
 H                    0    -3.92163   2.32022   4.3724   H 
 H                    0    -1.51001   2.23144   4.37005  H 
 H                    0    -1.5215    0.4558    4.26843  H 
 H                    0    -2.37602   2.41175   2.08282  H 
 H                    0    -1.13797   1.14322   1.94256  H 
 H                    0    -3.51459   0.53479   1.20774  H 
 H                    0    -7.12245   1.68728   3.20376  H 
 
 Add virtual bond connecting atoms H45        and O5         Dist= 2.88D+00.

 GradGradGradGradGradGradGradGradGradGradGradGradGradGradGradGradGradGrad
 Berny optimization.
 Initialization pass.
                           ----------------------------
                           !    Initial Parameters    !
                           ! (Angstroms and Degrees)  !
 --------------------------                            --------------------------
 ! Name  Definition              Value          Derivative Info.                !
 --------------------------------------------------------------------------------
 ! R1    R(1,2)                  0.9619         estimate D2E/DX2                !
 ! R2    R(1,7)                  1.421          estimate D2E/DX2                !
 ! R3    R(3,4)                  1.4946         estimate D2E/DX2                !
 ! R4    R(3,6)                  1.5319         estimate D2E/DX2                !
 ! R5    R(3,11)                 1.5293         estimate D2E/DX2                !
 ! R6    R(3,13)                 1.535          estimate D2E/DX2                !
 ! R7    R(4,5)                  1.2719         estimate D2E/DX2                !
 ! R8    R(4,9)                  1.495          estimate D2E/DX2                !
 ! R9    R(5,45)                 1.524          estimate D2E/DX2                !
 ! R10   R(6,7)                  1.5207         estimate D2E/DX2                !
 ! R11   R(6,14)                 1.0944         estimate D2E/DX2                !
 ! R12   R(6,15)                 1.0952         estimate D2E/DX2                !
 ! R13   R(7,8)                  1.5155         estimate D2E/DX2                !
 ! R14   R(7,24)                 1.0971         estimate D2E/DX2                !
 ! R15   R(8,9)                  1.5313         estimate D2E/DX2                !
 ! R16   R(8,16)                 1.0929         estimate D2E/DX2                !
 ! R17   R(8,17)                 1.0954         estimate D2E/DX2                !
 ! R18   R(9,10)                 1.5293         estimate D2E/DX2                !
 ! R19   R(9,12)                 1.5353         estimate D2E/DX2                !
 ! R20   R(10,18)                1.0921         estimate D2E/DX2                !
 ! R21   R(10,19)                1.0919         estimate D2E/DX2                !
 ! R22   R(10,20)                1.0893         estimate D2E/DX2                !
 ! R23   R(11,21)                1.0919         estimate D2E/DX2                !
 ! R24   R(11,22)                1.0921         estimate D2E/DX2                !
 ! R25   R(11,23)                1.0893         estimate D2E/DX2                !
 ! R26   R(12,25)                1.0925         estimate D2E/DX2                !
 ! R27   R(12,26)                1.0926         estimate D2E/DX2                !
 ! R28   R(12,27)                1.0914         estimate D2E/DX2                !
 ! R29   R(13,28)                1.0923         estimate D2E/DX2                !
 ! R30   R(13,29)                1.0914         estimate D2E/DX2                !
 ! R31   R(13,30)                1.0914         estimate D2E/DX2                !
 ! R32   R(31,38)                1.3401         estimate D2E/DX2                !
 ! R33   R(31,47)                0.9682         estimate D2E/DX2                !
 ! R34   R(32,38)                1.2043         estimate D2E/DX2                !
 ! R35   R(33,34)                1.4624         estimate D2E/DX2                !
 ! R36   R(33,37)                1.4704         estimate D2E/DX2                !
 ! R37   R(33,46)                1.0149         estimate D2E/DX2                !
 ! R38   R(34,35)                1.5539         estimate D2E/DX2                !
 ! R39   R(34,38)                1.5111         estimate D2E/DX2                !
 ! R40   R(34,39)                1.093          estimate D2E/DX2                !
 ! R41   R(35,36)                1.5326         estimate D2E/DX2                !
 ! R42   R(35,40)                1.0885         estimate D2E/DX2                !
 ! R43   R(35,41)                1.0931         estimate D2E/DX2                !
 ! R44   R(36,37)                1.5241         estimate D2E/DX2                !
 ! R45   R(36,42)                1.09           estimate D2E/DX2                !
 ! R46   R(36,43)                1.0917         estimate D2E/DX2                !
 ! R47   R(37,44)                1.0994         estimate D2E/DX2                !
 ! R48   R(37,45)                1.091          estimate D2E/DX2                !
 ! A1    A(2,1,7)              108.0206         estimate D2E/DX2                !
 ! A2    A(4,3,6)              110.0733         estimate D2E/DX2                !
 ! A3    A(4,3,11)             107.4281         estimate D2E/DX2                !
 ! A4    A(4,3,13)             109.3046         estimate D2E/DX2                !
 ! A5    A(6,3,11)             109.2963         estimate D2E/DX2                !
 ! A6    A(6,3,13)             111.507          estimate D2E/DX2                !
 ! A7    A(11,3,13)            109.1373         estimate D2E/DX2                !
 ! A8    A(3,4,5)              115.8043         estimate D2E/DX2                !
 ! A9    A(3,4,9)              124.9714         estimate D2E/DX2                !
 ! A10   A(5,4,9)              115.9907         estimate D2E/DX2                !
 ! A11   A(3,6,7)              113.4157         estimate D2E/DX2                !
 ! A12   A(3,6,14)             108.0437         estimate D2E/DX2                !
 ! A13   A(3,6,15)             109.7336         estimate D2E/DX2                !
 ! A14   A(7,6,14)             110.6137         estimate D2E/DX2                !
 ! A15   A(7,6,15)             107.4029         estimate D2E/DX2                !
 ! A16   A(14,6,15)            107.4754         estimate D2E/DX2                !
 ! A17   A(1,7,6)              111.1396         estimate D2E/DX2                !
 ! A18   A(1,7,8)              106.8122         estimate D2E/DX2                !
 ! A19   A(1,7,24)             109.5969         estimate D2E/DX2                !
 ! A20   A(6,7,8)              108.3721         estimate D2E/DX2                !
 ! A21   A(6,7,24)             110.4961         estimate D2E/DX2                !
 ! A22   A(8,7,24)             110.3527         estimate D2E/DX2                !
 ! A23   A(7,8,9)              113.3321         estimate D2E/DX2                !
 ! A24   A(7,8,16)             110.1328         estimate D2E/DX2                !
 ! A25   A(7,8,17)             107.4947         estimate D2E/DX2                !
 ! A26   A(9,8,16)             108.4354         estimate D2E/DX2                !
 ! A27   A(9,8,17)             109.7349         estimate D2E/DX2                !
 ! A28   A(16,8,17)            107.5587         estimate D2E/DX2                !
 ! A29   A(4,9,8)              110.1288         estimate D2E/DX2                !
 ! A30   A(4,9,10)             107.3978         estimate D2E/DX2                !
 ! A31   A(4,9,12)             109.3415         estimate D2E/DX2                !
 ! A32   A(8,9,10)             109.2409         estimate D2E/DX2                !
 ! A33   A(8,9,12)             111.5582         estimate D2E/DX2                !
 ! A34   A(10,9,12)            109.075          estimate D2E/DX2                !
 ! A35   A(9,10,18)            109.0025         estimate D2E/DX2                !
 ! A36   A(9,10,19)            110.4487         estimate D2E/DX2                !
 ! A37   A(9,10,20)            110.6885         estimate D2E/DX2                !
 ! A38   A(18,10,19)           108.7127         estimate D2E/DX2                !
 ! A39   A(18,10,20)           108.9472         estimate D2E/DX2                !
 ! A40   A(19,10,20)           109.0012         estimate D2E/DX2                !
 ! A41   A(3,11,21)            110.3922         estimate D2E/DX2                !
 ! A42   A(3,11,22)            109.0407         estimate D2E/DX2                !
 ! A43   A(3,11,23)            110.7361         estimate D2E/DX2                !
 ! A44   A(21,11,22)           108.7295         estimate D2E/DX2                !
 ! A45   A(21,11,23)           108.9409         estimate D2E/DX2                !
 ! A46   A(22,11,23)           108.962          estimate D2E/DX2                !
 ! A47   A(9,12,25)            109.9381         estimate D2E/DX2                !
 ! A48   A(9,12,26)            109.0008         estimate D2E/DX2                !
 ! A49   A(9,12,27)            112.3445         estimate D2E/DX2                !
 ! A50   A(25,12,26)           108.4271         estimate D2E/DX2                !
 ! A51   A(25,12,27)           109.0744         estimate D2E/DX2                !
 ! A52   A(26,12,27)           107.9612         estimate D2E/DX2                !
 ! A53   A(3,13,28)            109.229          estimate D2E/DX2                !
 ! A54   A(3,13,29)            109.8938         estimate D2E/DX2                !
 ! A55   A(3,13,30)            112.539          estimate D2E/DX2                !
 ! A56   A(28,13,29)           108.275          estimate D2E/DX2                !
 ! A57   A(28,13,30)           108.1155         estimate D2E/DX2                !
 ! A58   A(29,13,30)           108.6842         estimate D2E/DX2                !
 ! A59   A(38,31,47)           108.3319         estimate D2E/DX2                !
 ! A60   A(34,33,37)           107.3972         estimate D2E/DX2                !
 ! A61   A(34,33,46)           109.9499         estimate D2E/DX2                !
 ! A62   A(37,33,46)           111.3887         estimate D2E/DX2                !
 ! A63   A(33,34,35)           106.165          estimate D2E/DX2                !
 ! A64   A(33,34,38)           112.6508         estimate D2E/DX2                !
 ! A65   A(33,34,39)           110.5954         estimate D2E/DX2                !
 ! A66   A(35,34,38)           110.4587         estimate D2E/DX2                !
 ! A67   A(35,34,39)           109.8573         estimate D2E/DX2                !
 ! A68   A(38,34,39)           107.1335         estimate D2E/DX2                !
 ! A69   A(34,35,36)           103.326          estimate D2E/DX2                !
 ! A70   A(34,35,40)           111.0438         estimate D2E/DX2                !
 ! A71   A(34,35,41)           110.4028         estimate D2E/DX2                !
 ! A72   A(36,35,40)           113.1318         estimate D2E/DX2                !
 ! A73   A(36,35,41)           110.133          estimate D2E/DX2                !
 ! A74   A(40,35,41)           108.73           estimate D2E/DX2                !
 ! A75   A(35,36,37)           102.2023         estimate D2E/DX2                !
 ! A76   A(35,36,42)           112.7757         estimate D2E/DX2                !
 ! A77   A(35,36,43)           109.7044         estimate D2E/DX2                !
 ! A78   A(37,36,42)           113.0225         estimate D2E/DX2                !
 ! A79   A(37,36,43)           109.7202         estimate D2E/DX2                !
 ! A80   A(42,36,43)           109.2197         estimate D2E/DX2                !
 ! A81   A(33,37,36)           102.0773         estimate D2E/DX2                !
 ! A82   A(33,37,44)           112.4171         estimate D2E/DX2                !
 ! A83   A(33,37,45)           110.562          estimate D2E/DX2                !
 ! A84   A(36,37,44)           109.8497         estimate D2E/DX2                !
 ! A85   A(36,37,45)           113.3643         estimate D2E/DX2                !
 ! A86   A(44,37,45)           108.5374         estimate D2E/DX2                !
 ! A87   A(31,38,32)           122.9415         estimate D2E/DX2                !
 ! A88   A(31,38,34)           111.471          estimate D2E/DX2                !
 ! A89   A(32,38,34)           125.5867         estimate D2E/DX2                !
 ! A90   L(4,5,45,20,-1)       180.0            estimate D2E/DX2                !
 ! A91   L(5,45,37,43,-1)      180.0            estimate D2E/DX2                !
 ! A92   L(4,5,45,20,-2)       180.0            estimate D2E/DX2                !
 ! A93   L(5,45,37,43,-2)      180.0            estimate D2E/DX2                !
 ! D1    D(2,1,7,6)             62.6205         estimate D2E/DX2                !
 ! D2    D(2,1,7,8)           -179.3551         estimate D2E/DX2                !
 ! D3    D(2,1,7,24)           -59.8013         estimate D2E/DX2                !
 ! D4    D(6,3,4,5)           -168.9862         estimate D2E/DX2                !
 ! D5    D(6,3,4,9)             32.2304         estimate D2E/DX2                !
 ! D6    D(11,3,4,5)           -50.0742         estimate D2E/DX2                !
 ! D7    D(11,3,4,9)           151.1424         estimate D2E/DX2                !
 ! D8    D(13,3,4,5)            68.2225         estimate D2E/DX2                !
 ! D9    D(13,3,4,9)           -90.5609         estimate D2E/DX2                !
 ! D10   D(4,3,6,7)            -44.9881         estimate D2E/DX2                !
 ! D11   D(4,3,6,14)          -167.9843         estimate D2E/DX2                !
 ! D12   D(4,3,6,15)            75.1186         estimate D2E/DX2                !
 ! D13   D(11,3,6,7)          -162.7502         estimate D2E/DX2                !
 ! D14   D(11,3,6,14)           74.2536         estimate D2E/DX2                !
 ! D15   D(11,3,6,15)          -42.6435         estimate D2E/DX2                !
 ! D16   D(13,3,6,7)            76.4989         estimate D2E/DX2                !
 ! D17   D(13,3,6,14)          -46.4973         estimate D2E/DX2                !
 ! D18   D(13,3,6,15)         -163.3944         estimate D2E/DX2                !
 ! D19   D(4,3,11,21)          -56.6468         estimate D2E/DX2                !
 ! D20   D(4,3,11,22)         -176.0329         estimate D2E/DX2                !
 ! D21   D(4,3,11,23)           64.0849         estimate D2E/DX2                !
 ! D22   D(6,3,11,21)           62.7634         estimate D2E/DX2                !
 ! D23   D(6,3,11,22)          -56.6227         estimate D2E/DX2                !
 ! D24   D(6,3,11,23)         -176.5049         estimate D2E/DX2                !
 ! D25   D(13,3,11,21)        -175.0516         estimate D2E/DX2                !
 ! D26   D(13,3,11,22)          65.5622         estimate D2E/DX2                !
 ! D27   D(13,3,11,23)         -54.32           estimate D2E/DX2                !
 ! D28   D(4,3,13,28)         -176.2875         estimate D2E/DX2                !
 ! D29   D(4,3,13,29)          -57.641          estimate D2E/DX2                !
 ! D30   D(4,3,13,30)           63.6267         estimate D2E/DX2                !
 ! D31   D(6,3,13,28)           61.7802         estimate D2E/DX2                !
 ! D32   D(6,3,13,29)         -179.5732         estimate D2E/DX2                !
 ! D33   D(6,3,13,30)          -58.3056         estimate D2E/DX2                !
 ! D34   D(11,3,13,28)         -59.0637         estimate D2E/DX2                !
 ! D35   D(11,3,13,29)          59.5829         estimate D2E/DX2                !
 ! D36   D(11,3,13,30)        -179.1495         estimate D2E/DX2                !
 ! D37   D(3,4,37,33)          -51.9184         estimate D2E/DX2                !
 ! D38   D(3,4,37,36)           62.0027         estimate D2E/DX2                !
 ! D39   D(3,4,37,44)         -175.6545         estimate D2E/DX2                !
 ! D40   D(9,4,37,33)          108.8179         estimate D2E/DX2                !
 ! D41   D(9,4,37,36)         -137.261          estimate D2E/DX2                !
 ! D42   D(9,4,37,44)          -14.9182         estimate D2E/DX2                !
 ! D43   D(3,4,9,8)            -32.4083         estimate D2E/DX2                !
 ! D44   D(3,4,9,10)          -151.2669         estimate D2E/DX2                !
 ! D45   D(3,4,9,12)            90.5076         estimate D2E/DX2                !
 ! D46   D(5,4,9,8)            168.8435         estimate D2E/DX2                !
 ! D47   D(5,4,9,10)            49.9849         estimate D2E/DX2                !
 ! D48   D(5,4,9,12)           -68.2406         estimate D2E/DX2                !
 ! D49   D(3,6,7,1)            178.0593         estimate D2E/DX2                !
 ! D50   D(3,6,7,8)             60.983          estimate D2E/DX2                !
 ! D51   D(3,6,7,24)           -60.0406         estimate D2E/DX2                !
 ! D52   D(14,6,7,1)           -60.3715         estimate D2E/DX2                !
 ! D53   D(14,6,7,8)          -177.4478         estimate D2E/DX2                !
 ! D54   D(14,6,7,24)           61.5285         estimate D2E/DX2                !
 ! D55   D(15,6,7,1)            56.6373         estimate D2E/DX2                !
 ! D56   D(15,6,7,8)           -60.439          estimate D2E/DX2                !
 ! D57   D(15,6,7,24)          178.5373         estimate D2E/DX2                !
 ! D58   D(1,7,8,9)            179.037          estimate D2E/DX2                !
 ! D59   D(1,7,8,16)            57.373          estimate D2E/DX2                !
 ! D60   D(1,7,8,17)           -59.5279         estimate D2E/DX2                !
 ! D61   D(6,7,8,9)            -61.1396         estimate D2E/DX2                !
 ! D62   D(6,7,8,16)           177.1964         estimate D2E/DX2                !
 ! D63   D(6,7,8,17)            60.2954         estimate D2E/DX2                !
 ! D64   D(24,7,8,9)            59.9727         estimate D2E/DX2                !
 ! D65   D(24,7,8,16)          -61.6913         estimate D2E/DX2                !
 ! D66   D(24,7,8,17)         -178.5923         estimate D2E/DX2                !
 ! D67   D(7,8,9,4)             45.4038         estimate D2E/DX2                !
 ! D68   D(7,8,9,10)           163.1285         estimate D2E/DX2                !
 ! D69   D(7,8,9,12)           -76.2026         estimate D2E/DX2                !
 ! D70   D(16,8,9,4)           168.0132         estimate D2E/DX2                !
 ! D71   D(16,8,9,10)          -74.262          estimate D2E/DX2                !
 ! D72   D(16,8,9,12)           46.4069         estimate D2E/DX2                !
 ! D73   D(17,8,9,4)           -74.7654         estimate D2E/DX2                !
 ! D74   D(17,8,9,10)           42.9593         estimate D2E/DX2                !
 ! D75   D(17,8,9,12)          163.6283         estimate D2E/DX2                !
 ! D76   D(4,9,10,18)          175.8446         estimate D2E/DX2                !
 ! D77   D(4,9,10,19)           56.4685         estimate D2E/DX2                !
 ! D78   D(4,9,10,20)          -64.345          estimate D2E/DX2                !
 ! D79   D(8,9,10,18)           56.4164         estimate D2E/DX2                !
 ! D80   D(8,9,10,19)          -62.9597         estimate D2E/DX2                !
 ! D81   D(8,9,10,20)          176.2268         estimate D2E/DX2                !
 ! D82   D(12,9,10,18)         -65.7576         estimate D2E/DX2                !
 ! D83   D(12,9,10,19)         174.8663         estimate D2E/DX2                !
 ! D84   D(12,9,10,20)          54.0528         estimate D2E/DX2                !
 ! D85   D(4,9,12,25)           57.8951         estimate D2E/DX2                !
 ! D86   D(4,9,12,26)          176.6156         estimate D2E/DX2                !
 ! D87   D(4,9,12,27)          -63.7703         estimate D2E/DX2                !
 ! D88   D(8,9,12,25)          179.9563         estimate D2E/DX2                !
 ! D89   D(8,9,12,26)          -61.3231         estimate D2E/DX2                !
 ! D90   D(8,9,12,27)           58.291          estimate D2E/DX2                !
 ! D91   D(10,9,12,25)         -59.2777         estimate D2E/DX2                !
 ! D92   D(10,9,12,26)          59.4428         estimate D2E/DX2                !
 ! D93   D(10,9,12,27)         179.0569         estimate D2E/DX2                !
 ! D94   D(47,31,38,32)         -0.737          estimate D2E/DX2                !
 ! D95   D(47,31,38,34)        178.9593         estimate D2E/DX2                !
 ! D96   D(37,33,34,35)        -17.8082         estimate D2E/DX2                !
 ! D97   D(37,33,34,38)        103.2091         estimate D2E/DX2                !
 ! D98   D(37,33,34,39)       -136.9343         estimate D2E/DX2                !
 ! D99   D(46,33,34,35)       -139.1609         estimate D2E/DX2                !
 ! D100  D(46,33,34,38)        -18.1436         estimate D2E/DX2                !
 ! D101  D(46,33,34,39)        101.713          estimate D2E/DX2                !
 ! D102  D(34,33,37,36)         38.2915         estimate D2E/DX2                !
 ! D103  D(34,33,37,44)        -79.347          estimate D2E/DX2                !
 ! D104  D(34,33,37,45)        159.1826         estimate D2E/DX2                !
 ! D105  D(46,33,37,36)        158.7372         estimate D2E/DX2                !
 ! D106  D(46,33,37,44)         41.0987         estimate D2E/DX2                !
 ! D107  D(46,33,37,45)        -80.3717         estimate D2E/DX2                !
 ! D108  D(33,34,35,36)         -9.6539         estimate D2E/DX2                !
 ! D109  D(33,34,35,40)       -131.2346         estimate D2E/DX2                !
 ! D110  D(33,34,35,41)        108.089          estimate D2E/DX2                !
 ! D111  D(38,34,35,36)       -132.0723         estimate D2E/DX2                !
 ! D112  D(38,34,35,40)        106.3469         estimate D2E/DX2                !
 ! D113  D(38,34,35,41)        -14.3295         estimate D2E/DX2                !
 ! D114  D(39,34,35,36)        109.9555         estimate D2E/DX2                !
 ! D115  D(39,34,35,40)        -11.6252         estimate D2E/DX2                !
 ! D116  D(39,34,35,41)       -132.3016         estimate D2E/DX2                !
 ! D117  D(33,34,38,31)        174.2941         estimate D2E/DX2                !
 ! D118  D(33,34,38,32)         -6.0193         estimate D2E/DX2                !
 ! D119  D(35,34,38,31)        -67.1731         estimate D2E/DX2                !
 ! D120  D(35,34,38,32)        112.5135         estimate D2E/DX2                !
 ! D121  D(39,34,38,31)         52.4565         estimate D2E/DX2                !
 ! D122  D(39,34,38,32)       -127.8568         estimate D2E/DX2                !
 ! D123  D(34,35,36,37)         32.1086         estimate D2E/DX2                !
 ! D124  D(34,35,36,42)        153.7611         estimate D2E/DX2                !
 ! D125  D(34,35,36,43)        -84.2601         estimate D2E/DX2                !
 ! D126  D(40,35,36,37)        152.272          estimate D2E/DX2                !
 ! D127  D(40,35,36,42)        -86.0755         estimate D2E/DX2                !
 ! D128  D(40,35,36,43)         35.9033         estimate D2E/DX2                !
 ! D129  D(41,35,36,37)        -85.8229         estimate D2E/DX2                !
 ! D130  D(41,35,36,42)         35.8296         estimate D2E/DX2                !
 ! D131  D(41,35,36,43)        157.8084         estimate D2E/DX2                !
 ! D132  D(35,36,37,33)        -43.2051         estimate D2E/DX2                !
 ! D133  D(35,36,37,44)         76.2575         estimate D2E/DX2                !
 ! D134  D(35,36,37,45)       -162.1315         estimate D2E/DX2                !
 ! D135  D(42,36,37,33)       -164.6879         estimate D2E/DX2                !
 ! D136  D(42,36,37,44)        -45.2253         estimate D2E/DX2                !
 ! D137  D(42,36,37,45)         76.3857         estimate D2E/DX2                !
 ! D138  D(43,36,37,33)         73.1523         estimate D2E/DX2                !
 ! D139  D(43,36,37,44)       -167.3852         estimate D2E/DX2                !
 ! D140  D(43,36,37,45)        -45.7741         estimate D2E/DX2                !
 --------------------------------------------------------------------------------
 Trust Radius=3.00D-01 FncErr=1.00D-07 GrdErr=1.00D-06 EigMax=2.50D+02 EigMin=1.00D-04
 Number of steps in this run=    282 maximum allowed number of steps=    282.
 GradGradGradGradGradGradGradGradGradGradGradGradGradGradGradGradGradGrad

                          Input orientation:                          
 ---------------------------------------------------------------------
 Center     Atomic      Atomic             Coordinates (Angstroms)
 Number     Number       Type             X           Y           Z
 ---------------------------------------------------------------------
      1          8           0        4.813050   -0.584789   -1.281987
      2          1           0        5.027450   -1.521073   -1.334095
      3          6           0        1.783560   -0.916027    0.987190
      4          7           0        1.283285    0.466650    0.719241
      5          8           0        0.181836    0.774427    1.275740
      6          6           0        3.226423   -1.058200    0.492488
      7          6           0        3.452324   -0.466563   -0.890064
      8          6           0        3.139936    1.015305   -0.832376
      9          6           0        1.689511    1.314659   -0.443074
     10          6           0        1.576542    2.775530   -0.004903
     11          6           0        1.744644   -1.131924    2.500642
     12          6           0        0.728299    1.066334   -1.614246
     13          6           0        0.853703   -1.932261    0.309836
     14          1           0        3.485364   -2.121449    0.503593
     15          1           0        3.906047   -0.546952    1.182617
     16          1           0        3.340777    1.480058   -1.800902
     17          1           0        3.819786    1.466972   -0.101753
     18          1           0        1.938346    3.417541   -0.810925
     19          1           0        2.183331    2.954902    0.885010
     20          1           0        0.540923    3.032598    0.214239
     21          1           0        2.330710   -0.364094    3.009670
     22          1           0        2.171744   -2.110015    2.732102
     23          1           0        0.720088   -1.096918    2.869015
     24          1           0        2.811877   -0.963035   -1.629709
     25          1           0       -0.296908    1.286829   -1.307954
     26          1           0        0.993093    1.732142   -2.439077
     27          1           0        0.777918    0.039680   -1.981224
     28          1           0        1.181911   -2.943395    0.561021
     29          1           0       -0.166647   -1.803011    0.675027
     30          1           0        0.850669   -1.836724   -0.777345
     31          8           0       -6.361079    1.210866    3.565347
     32          8           0       -5.502396    1.743194    1.570204
     33          7           0       -3.109356    0.395821    2.127772
     34          6           0       -4.145545    0.515807    3.152688
     35          6           0       -3.505185    1.310671    4.324287
     36          6           0       -2.022083    1.369460    3.942303
     37          6           0       -2.082790    1.407230    2.419926
     38          6           0       -5.382990    1.222128    2.649303
     39          1           0       -4.457871   -0.471921    3.501126
     40          1           0       -3.682135    0.813847    5.276441
     41          1           0       -3.921630    2.320222    4.372405
     42          1           0       -1.510006    2.231443    4.370048
     43          1           0       -1.521504    0.455799    4.268434
     44          1           0       -2.376017    2.411748    2.082823
     45          1           0       -1.137969    1.143219    1.942562
     46          1           0       -3.514590    0.534791    1.207738
     47          1           0       -7.122449    1.687279    3.203756
 ---------------------------------------------------------------------
                    Distance matrix (angstroms):
                    1          2          3          4          5
     1  O    0.000000
     2  H    0.961931   0.000000
     3  C    3.799565   4.034510   0.000000
     4  N    4.191620   4.710202   1.494613   0.000000
     5  O    5.462378   5.963265   2.346575   1.271852   0.000000
     6  C    2.426987   2.606598   1.531926   2.480397   3.638889
     7  C    1.420970   1.946838   2.551641   2.857530   4.114226
     8  C    2.358339   3.201194   2.980037   2.481066   3.640403
     9  C    3.750756   4.469578   2.651502   1.495030   2.349310
    10  C    4.837114   5.668890   3.828146   2.437480   2.754935
    11  C    4.901301   5.062950   1.529269   2.437556   2.752622
    12  C    4.418347   5.025521   3.436684   2.472406   2.955647
    13  C    4.475043   4.504636   1.534983   2.471220   2.951362
    14  H    2.704139   2.472969   2.140805   3.404983   4.460449
    15  H    2.626473   2.922378   2.163183   2.849735   3.952779
    16  H    2.588523   3.474127   3.992444   3.407549   4.465708
    17  H    2.566953   3.450439   3.318237   2.847545   3.951175
    18  H    4.950199   5.848605   4.694357   3.387960   3.798098
    19  H    4.913320   5.748721   3.892859   2.651219   2.985485
    20  H    5.794415   6.577399   4.211085   2.718495   2.520925
    21  H    4.962765   5.242070   2.166663   2.652037   2.986704
    22  H    5.041401   5.003585   2.149654   3.388240   3.794829
    23  H    5.851960   6.033192   2.169092   2.717253   2.515983
    24  H    2.066077   2.303814   2.812082   3.146134   4.286901
    25  H    5.441994   6.019451   3.801132   2.698004   2.677168
    26  H    4.615095   5.299097   4.401925   3.414770   3.921125
    27  H    4.142606   4.573100   3.276610   2.780326   3.391605
    28  H    4.705834   4.516928   2.157272   3.415218   3.915760
    29  H    5.487381   5.576263   2.165062   2.693626   2.669360
    30  H    4.185985   4.225530   2.198079   2.780730   3.388304
    31  O   12.311872  12.695142   8.803733   8.190878   6.945683
    32  O   10.952759  11.400353   7.777951   6.956951   5.773709
    33  N    8.680586   9.048018   5.192543   4.613489   3.420709
    34  C   10.056544  10.412682   6.472543   5.949477   4.723986
    35  C   10.208629  10.622708   6.638164   6.052947   4.814075
    36  C    8.822207   9.267765   5.332829   4.704110   3.510254
    37  C    8.076194   8.557052   4.732749   3.886834   2.614982
    38  C   11.076065  11.479106   7.661185   6.981053   5.749295
    39  H   10.432683  10.698196   6.743335   6.448307   5.294582
    40  H   10.823000  11.180694   7.159885   6.748631   5.562143
    41  H   10.803049  11.287414   7.381205   6.623630   5.368170
    42  H    8.936314   9.452881   5.674317   4.923958   3.815753
    43  H    8.486258   8.842237   4.855092   4.523686   3.458195
    44  H    8.484331   9.052830   5.438436   4.362712   3.142422
    45  H    6.985582   7.473107   3.699806   2.795842   1.523990
    46  H    8.763662   9.146252   5.497627   4.823160   3.704809
    47  H   12.951460  13.360601   9.539778   8.849809   7.609411
                    6          7          8          9         10
     6  C    0.000000
     7  C    1.520696   0.000000
     8  C    2.462147   1.515535   0.000000
     9  C    2.977891   2.545597   1.531307   0.000000
    10  C    4.203212   3.848797   2.495457   1.529346   0.000000
    11  C    2.496755   3.854318   4.203147   3.828090   4.644805
    12  C    3.897768   3.208508   2.535728   1.535330   2.496167
    13  C    2.535181   3.215721   3.901238   3.436268   4.773348
    14  H    1.094382   2.163797   3.426859   3.991003   5.280395
    15  H    1.095236   2.123284   2.662287   3.319864   4.227965
    16  H    3.422787   2.152069   1.092875   2.144233   2.831322
    17  H    2.661146   2.120146   1.095449   2.162815   2.598817
    18  H    4.836350   4.169491   2.686078   2.149266   1.092132
    19  H    4.164985   4.058036   2.761620   2.167501   1.091931
    20  H    4.901424   4.684001   3.452498   2.168555   1.089318
    21  H    2.760487   4.059119   4.161599   3.892401   4.417427
    22  H    2.689709   4.178625   4.838442   4.694964   5.631519
    23  H    3.454142   4.689684   4.900760   4.210157   4.897833
    24  H    2.164399   1.097147   2.158053   2.802802   4.259450
    25  H    4.599414   4.160019   3.480201   2.166715   2.724700
    26  H    4.622537   3.644388   2.775658   2.154836   2.711877
    27  H    3.649626   2.932466   2.801932   2.196014   3.468216
    28  H    2.781849   3.659934   4.631061   4.404190   5.760391
    29  H    3.478647   4.163238   4.598767   3.796754   4.946115
    30  H    2.804065   2.942559   3.657573   3.278202   4.732488
    31  O   10.320432  10.907215  10.471270   8.993899   8.843115
    32  O    9.230470   9.545835   8.999562   7.480673   7.325165
    33  N    6.703017   7.273699   6.942614   5.521109   5.671769
    34  C    7.993752   8.662362   8.319163   6.900402   6.915129
    35  C    8.099925   8.874398   8.416415   7.050717   6.834592
    36  C    6.733615   7.529401   7.040556   5.745473   5.523366
    37  C    6.162881   6.715997   6.165058   4.736623   4.598125
    38  C    9.163718   9.666518   9.208970   7.719561   7.608742
    39  H    8.273089   9.047307   8.872302   7.519234   7.697552
    40  H    8.609236   9.516603   9.159633   7.862458   7.706782
    41  H    8.806938   9.478130   8.868950   7.462231   7.042587
    42  H    6.949172   7.718338   7.082808   5.851799   5.381729
    43  H    6.252422   7.224945   6.932556   5.765984   5.765453
    44  H    6.779162   7.147887   6.393292   4.910426   4.484826
    45  H    5.098713   5.629028   5.100697   3.703416   3.718283
    46  H    6.963509   7.344479   6.976795   5.515074   5.693069
    47  H   11.044808  11.542280  11.048007   9.544048   9.335536
                   11         12         13         14         15
    11  C    0.000000
    12  C    4.774683   0.000000
    13  C    2.496787   3.565023   0.000000
    14  H    2.827980   4.716843   2.645557   0.000000
    15  H    2.598277   4.530256   3.463760   1.765528   0.000000
    16  H    5.279524   2.651613   4.720664   4.278137   3.650984
    17  H    4.222906   3.464886   4.530104   3.654456   2.390175
    18  H    5.630420   2.763641   5.572516   5.899291   4.854200
    19  H    4.416431   3.453996   5.097362   5.254532   3.913988
    20  H    4.901003   2.691591   4.975620   5.942866   5.007494
    21  H    1.091854   5.098475   3.453954   3.271383   2.419348
    22  H    1.092085   5.573461   2.763368   2.586886   2.802120
    23  H    1.089330   4.977887   2.695375   3.780428   3.646469
    24  H    4.269345   2.908586   2.921588   2.519223   3.046229
    25  H    4.952141   1.092466   3.782022   5.404040   5.218288
    26  H    5.759212   1.092594   4.582990   5.451686   5.176508
    27  H    4.732266   1.091400   3.023781   4.263222   4.487674
    28  H    2.712974   4.584264   1.092340   2.446383   3.681065
    29  H    2.726951   3.778206   1.091414   3.669874   4.292105
    30  H    3.470034   3.023760   1.091375   2.943380   3.852311
    31  O    8.504411   8.781136   8.516495  10.836563  10.685561
    32  O    7.851854   7.029966   7.449664   9.841390   9.690913
    33  N    5.102387   5.401841   4.942742   7.243269   7.141290
    34  C    6.150976   6.839671   6.250386   8.497270   8.356959
    35  C    6.070639   7.297140   6.755171   8.674383   8.261187
    36  C    4.745897   6.207393   5.689141   7.371780   6.814046
    37  C    4.593808   4.928790   4.922161   6.865002   6.419963
    38  C    7.507784   7.453185   7.370184   9.717576   9.569065
    39  H    6.317259   7.445107   6.366297   8.648764   8.679645
    40  H    6.398516   8.185185   7.265129   9.097751   8.728784
    41  H    6.894017   7.683363   7.575743   9.463599   8.925691
    42  H    5.039808   6.494557   6.277649   7.671432   6.871159
    43  H    4.039020   6.327740   5.197590   6.773844   6.323456
    44  H    5.450874   5.011511   5.696051   7.576255   7.002043
    45  H    3.714456   4.017431   4.011375   5.839854   5.373666
    46  H    5.666487   5.123303   5.096524   7.520025   7.499110
    47  H    9.331003   9.232170   9.224687  11.589780  11.432608
                   16         17         18         19         20
    16  H    0.000000
    17  H    1.765426   0.000000
    18  H    2.588572   2.801332   0.000000
    19  H    3.275511   2.421905   1.774894   0.000000
    20  H    3.782903   3.647188   1.775369   1.775802   0.000000
    21  H    5.250022   3.905266   5.389959   3.943556   4.749241
    22  H    5.899440   4.851970   6.569733   5.391221   5.953627
    23  H    5.942806   5.000712   5.950332   4.742847   4.912519
    24  H    2.505543   3.042279   4.541245   4.697777   4.952016
    25  H    3.676015   4.293547   3.127832   3.707175   2.463076
    26  H    2.445901   3.677444   2.526846   3.736491   2.989269
    27  H    2.945412   3.850004   3.758475   4.323078   3.719379
    28  H    5.459516   5.181601   6.551026   5.991470   6.020267
    29  H    5.404701   5.214194   5.821788   5.310765   4.908777
    30  H    4.271926   4.492938   5.365768   5.243958   4.978903
    31  O   11.090316  10.824197   9.638549   9.123202   7.885827
    32  O    9.467593   9.474958   7.989860   7.810770   6.326366
    33  N    7.629828   7.357388   6.576172   6.008818   4.892724
    34  C    9.028447   8.656940   7.819464   7.151659   6.077146
    35  C    9.187700   8.559758   7.774402   6.847725   6.019013
    36  C    7.858556   7.105725   6.517117   5.435639   4.820113
    37  C    6.872829   6.418944   5.536180   4.790725   3.793514
    38  C    9.796681   9.608295   8.390171   7.960179   6.655830
    39  H    9.630194   9.233615   8.639056   7.917875   6.933485
    40  H    9.992693   9.253668   8.684760   7.633641   6.955787
    41  H    9.568602   8.981962   7.900021   7.059412   6.141026
    42  H    7.885132   6.999150   6.335648   5.129290   4.703074
    43  H    7.843961   6.974983   6.822197   5.605254   5.227810
    44  H    6.973744   6.637240   5.291420   4.745253   3.519318
    45  H    5.846892   5.372464   4.713591   3.928313   3.061949
    46  H    7.545959   7.508448   6.489974   6.198983   4.865518
    47  H   11.600373  11.432735  10.060292   9.673727   8.335129
                   21         22         23         24         25
    21  H    0.000000
    22  H    1.774980   0.000000
    23  H    1.775083   1.775504   0.000000
    24  H    4.702562   4.555297   4.963066   0.000000
    25  H    5.317123   5.827079   4.915649   3.850969   0.000000
    26  H    5.989346   6.549235   6.021126   3.350676   1.772525
    27  H    5.242444   5.364642   4.981969   2.294774   1.778742
    28  H    3.737434   2.527426   2.991587   3.373116   4.855385
    29  H    3.709155   3.129518   2.469504   3.858623   3.673730
    30  H    4.324424   3.759807   3.722943   2.310020   3.369727
    31  O    8.850790   9.194108   7.480219  10.763716   7.780039
    32  O    8.238342   8.665429   6.962216   9.310761   5.965666
    33  N    5.563231   5.876602   4.176404   7.143260   4.528574
    34  C    6.537320   6.854194   5.133784   8.571115   5.941701
    35  C    6.212143   6.816426   5.076143   8.973577   6.481955
    36  C    4.777219   5.582071   3.841155   7.736603   5.527048
    37  C    4.792115   5.528971   3.785309   6.780521   4.135331
    38  C    7.883345   8.257362   6.532519   9.499512   6.444556
    39  H    6.807201   6.872157   5.253707   8.911559   6.598035
    40  H    6.533001   7.020721   5.369012   9.644916   7.418742
    41  H    6.939334   7.710175   5.956725   9.599232   6.817110
    42  H    4.830998   5.923378   4.278365   8.054840   5.882484
    43  H    4.134763   4.752242   3.064970   7.455158   5.769433
    44  H    5.542348   6.445932   4.744966   7.217084   4.133462
    45  H    3.929688   4.707558   3.054326   5.727016   3.360634
    46  H    6.182433   6.453919   4.832681   7.093572   4.153040
    47  H    9.675124  10.051066   8.328817  11.361223   8.191697
                   26         27         28         29         30
    26  H    0.000000
    27  H    1.766453   0.000000
    28  H    5.558497   3.940172   0.000000
    29  H    4.851798   3.367994   1.769769   0.000000
    30  H    3.939345   2.230585   1.767955   1.773542   0.000000
    31  O    9.508348   9.115997   9.120338   7.470501   8.952993
    32  O    7.633206   7.413296   8.225724   6.468936   7.660825
    33  N    6.282671   5.667591   5.658626   3.950300   5.394976
    34  C    7.691093   7.129112   6.860365   5.229469   6.778032
    35  C    8.133587   7.727862   7.363974   5.844480   7.409872
    36  C    7.067166   6.685544   6.348178   4.917551   6.388067
    37  C    5.759907   5.424386   5.748194   4.125763   5.417652
    38  C    8.173503   7.797227   8.050492   6.345035   7.743190
    39  H    8.358045   7.598117   6.823455   5.307847   6.953315
    40  H    9.068089   8.553661   7.746676   6.354495   8.013748
    41  H    8.420013   8.225280   8.263077   6.691155   8.159348
    42  H    7.271794   7.097681   6.966639   5.633349   6.972692
    43  H    7.276191   6.672236   5.710332   4.455383   6.028496
    44  H    5.679820   5.664847   6.606988   4.962600   6.053229
    45  H    4.907852   4.503833   4.898052   3.351176   4.498070
    46  H    5.920483   5.370311   5.879893   4.117987   5.349778
    47  H    9.884615   9.592414   9.868617   8.182896   9.583234
                   31         32         33         34         35
    31  O    0.000000
    32  O    2.236359   0.000000
    33  N    3.647550   2.802309   0.000000
    34  C    2.358386   2.419046   1.462374   0.000000
    35  C    2.956702   3.429417   2.412117   1.553871   0.000000
    36  C    4.358227   4.228370   2.328660   2.421014   1.532632
    37  C    4.433318   3.539577   1.470422   2.363585   2.378891
    38  C    1.340120   1.204252   2.474709   1.511144   2.517849
    39  H    2.541279   3.118690   2.111295   1.092960   2.182393
    40  H    3.203469   4.232403   3.227528   2.194061   1.088460
    41  H    2.798737   3.268656   3.066184   2.189466   1.093131
    42  H    5.022155   4.900683   3.309869   3.372157   2.197875
    43  H    4.948328   4.978487   2.665953   2.852031   2.160767
    44  H    4.418226   3.237899   2.145640   2.805430   2.740721
    45  H    5.469816   4.421181   2.116430   3.302055   3.362197
    46  H    3.757379   2.354357   1.014884   2.044822   3.211690
    47  H    0.968195   2.301345   4.350922   3.199518   3.805526
                   36         37         38         39         40
    36  C    0.000000
    37  C    1.524055   0.000000
    38  C    3.604060   3.313336   0.000000
    39  H    3.085188   3.215775   2.109798   0.000000
    40  H    2.201001   3.327114   3.156177   2.325233   0.000000
    41  H    2.167306   2.833207   2.512063   2.973675   1.773078
    42  H    1.090048   2.193260   4.356568   4.093057   2.747594
    43  H    1.091658   2.153427   4.256749   3.173591   2.410934
    44  H    2.160856   1.099399   3.282983   3.829000   3.802424
    45  H    2.198137   1.090993   4.304174   4.007436   4.206664
    46  H    3.225228   2.068961   2.457938   2.676355   4.081702
    47  H    5.163351   5.107933   1.884013   3.442463   4.110313
                   41         42         43         44         45
    41  H    0.000000
    42  H    2.413259   0.000000
    43  H    3.040968   1.778586   0.000000
    44  H    2.763961   2.452322   3.054967   0.000000
    45  H    3.877917   2.686138   2.455469   1.778090   0.000000
    46  H    3.656304   4.110620   3.653285   2.363280   2.560952
    47  H    3.465775   5.758114   5.832724   4.930514   6.140083
                   46         47
    46  H    0.000000
    47  H    4.281234   0.000000
 Stoichiometry    C14H27N2O4(2)
 Framework group  C1[X(C14H27N2O4)]
 Deg. of freedom   135
 Full point group                 C1      NOp   1
 Largest Abelian subgroup         C1      NOp   1
 Largest concise Abelian subgroup C1      NOp   1
                         Standard orientation:                         
 ---------------------------------------------------------------------
 Center     Atomic      Atomic             Coordinates (Angstroms)
 Number     Number       Type             X           Y           Z
 ---------------------------------------------------------------------
      1          8           0        5.843379   -0.037678   -0.240507
      2          1           0        6.203537   -0.709757   -0.826944
      3          6           0        2.242666   -1.250043   -0.282092
      4          7           0        1.686986    0.009554    0.299719
      5          8           0        0.421013    0.055768    0.412787
      6          6           0        3.764359   -1.282862   -0.108392
      7          6           0        4.441347    0.032426   -0.460842
      8          6           0        3.905692    1.107926    0.462857
      9          6           0        2.395845    1.325524    0.329018
     10          6           0        1.886871    2.091989    1.550647
     11          6           0        1.621497   -2.420323    0.481619
     12          6           0        2.050320    2.117585   -0.940032
     13          6           0        1.842897   -1.345408   -1.761032
     14          1           0        4.158473   -2.096455   -0.725168
     15          1           0        4.012781   -1.510188    0.933793
     16          1           0        4.410379    2.057350    0.267255
     17          1           0        4.147030    0.810678    1.489215
     18          1           0        2.442017    3.028279    1.639681
     19          1           0        2.039789    1.506277    2.459421
     20          1           0        0.826156    2.318038    1.448671
     21          1           0        1.819963   -2.324930    1.551039
     22          1           0        2.063215   -3.353189    0.124831
     23          1           0        0.544256   -2.455615    0.323679
     24          1           0        4.246113    0.296554   -1.507671
     25          1           0        0.968976    2.256694   -1.009495
     26          1           0        2.522261    3.101449   -0.884830
     27          1           0        2.405434    1.624354   -1.846548
     28          1           0        2.192806   -2.296952   -2.167647
     29          1           0        0.756033   -1.312105   -1.854849
     30          1           0        2.270550   -0.541505   -2.362657
     31          8           0       -6.465829    0.024741   -0.488855
     32          8           0       -4.959918    1.595352   -1.005301
     33          7           0       -2.827099   -0.183804   -0.632978
     34          6           0       -4.196964   -0.600325   -0.335461
     35          6           0       -4.225292   -0.943719    1.179726
     36          6           0       -2.744958   -0.916846    1.575769
     37          6           0       -2.181881    0.150786    0.645257
     38          6           0       -5.213258    0.471958   -0.653124
     39          1           0       -4.466271   -1.482874   -0.921245
     40          1           0       -4.696794   -1.909350    1.352889
     41          1           0       -4.776852   -0.179443    1.733439
     42          1           0       -2.594396   -0.685694    2.630332
     43          1           0       -2.286025   -1.881322    1.350196
     44          1           0       -2.464125    1.149264    1.008654
     45          1           0       -1.095932    0.111143    0.548269
     46          1           0       -2.836192    0.612181   -1.262514
     47          1           0       -7.076413    0.749404   -0.687482
 ---------------------------------------------------------------------
 Rotational constants (GHZ):           0.7617037           0.1235057           0.1177853
 Standard basis: 6-311G(d,p) (5D, 7F)
 There are   542 symmetry adapted cartesian basis functions of A   symmetry.
 There are   522 symmetry adapted basis functions of A   symmetry.
   522 basis functions,   856 primitive gaussians,   542 cartesian basis functions
    79 alpha electrons       78 beta electrons
       nuclear repulsion energy      1696.2988217214 Hartrees.
 NAtoms=   47 NActive=   47 NUniq=   47 SFac= 1.00D+00 NAtFMM=   60 NAOKFM=F Big=F
 Integral buffers will be    131072 words long.
 Raffenetti 2 integral format.
 Two-electron integral symmetry is turned on.
 ------------------------------------------------------------------------------
 Polarizable Continuum Model (PCM)
 =================================
 Model                : PCM.
 Atomic radii         : UFF (Universal Force Field).
 Polarization charges : Total charges.
 Charge compensation  : None.
 Solution method      : On-the-fly selection.
 Cavity type          : Scaled VdW (van der Waals Surface) (Alpha=1.100).
 Cavity algorithm     : GePol (No added spheres)
                        Default sphere list used, NSphG=   47.
                        Lebedev-Laikov grids with approx.  5.0 points / Ang**2.
                        Smoothing algorithm: York/Karplus (Gamma=1.0000).
                        Polarization charges: spherical gaussians, with
                                              point-specific exponents (IZeta= 3).
                        Self-potential: point-specific (ISelfS= 7).
                        Self-field    : sphere-specific E.n sum rule (ISelfD= 2).
 1st derivatives      : Analytical E(r).r(x)/FMM algorithm (CHGder, D1EAlg=3).
                        Cavity 1st derivative terms included.
 Solvent              : Water, Eps=  78.355300 Eps(inf)=   1.777849
 ------------------------------------------------------------------------------
 One-electron integrals computed using PRISM.
 NBasis=   522 RedAO= T EigKep=  9.11D-04  NBF=   522
 NBsUse=   522 1.00D-06 EigRej= -1.00D+00 NBFU=   522
 ExpMin= 1.03D-01 ExpMax= 8.59D+03 ExpMxC= 1.30D+03 IAcc=3 IRadAn=         5 AccDes= 0.00D+00
 Harris functional with IExCor= 1009 and IRadAn=       5 diagonalized for initial guess.
 HarFok:  IExCor= 1009 AccDes= 0.00D+00 IRadAn=         5 IDoV= 1 UseB2=F ITyADJ=14
 ICtDFT=  3500011 ScaDFX=  1.000000  1.000000  1.000000  1.000000
 FoFCou: FMM=F IPFlag=           0 FMFlag=      100000 FMFlg1=           0
         NFxFlg=           0 DoJE=T BraDBF=F KetDBF=T FulRan=T
         wScrn=  0.000000 ICntrl=       500 IOpCl=  0 I1Cent=   200000004 NGrid=           0
         NMat0=    1 NMatS0=      1 NMatT0=    0 NMatD0=    1 NMtDS0=    0 NMtDT0=    0
 Petite list used in FoFCou.
 Initial guess <Sx>= 0.0000 <Sy>= 0.0000 <Sz>= 0.5000 <S**2>= 0.7500 S= 0.5000
 Requested convergence on RMS density matrix=1.00D-08 within 128 cycles.
 Requested convergence on MAX density matrix=1.00D-06.
 Requested convergence on             energy=1.00D-06.
 No special actions if energy rises.
 Inv3:  Mode=1 IEnd=    28164288.
 Iteration    1 A*A^-1 deviation from unit magnitude is 4.66D-15 for   3022.
 Iteration    1 A*A^-1 deviation from orthogonality  is 2.70D-15 for   2505   1661.
 Iteration    1 A^-1*A deviation from unit magnitude is 4.66D-15 for   3022.
 Iteration    1 A^-1*A deviation from orthogonality  is 2.50D-15 for   3056   3048.
 Error on total polarization charges =  0.01264
 SCF Done:  E(UM062X) =  -959.945827148     A.U. after   15 cycles
            NFock= 15  Conv=0.35D-08     -V/T= 2.0034
 <Sx>= 0.0000 <Sy>= 0.0000 <Sz>= 0.5000 <S**2>= 0.7547 S= 0.5024
 <L.S>= 0.000000000000E+00
 Annihilation of the first spin contaminant:
 S**2 before annihilation     0.7547,   after     0.7500

 **********************************************************************

            Population analysis using the SCF density.

 **********************************************************************

 Orbital symmetries:
 Alpha Orbitals:
       Occupied  (A) (A) (A) (A) (A) (A) (A) (A) (A) (A) (A) (A)
                 (A) (A) (A) (A) (A) (A) (A) (A) (A) (A) (A) (A)
                 (A) (A) (A) (A) (A) (A) (A) (A) (A) (A) (A) (A)
                 (A) (A) (A) (A) (A) (A) (A) (A) (A) (A) (A) (A)
                 (A) (A) (A) (A) (A) (A) (A) (A) (A) (A) (A) (A)
                 (A) (A) (A) (A) (A) (A) (A) (A) (A) (A) (A) (A)
                 (A) (A) (A) (A) (A) (A) (A)
       Virtual   (A) (A) (A) (A) (A) (A) (A) (A) (A) (A) (A) (A)
                 (A) (A) (A) (A) (A) (A) (A) (A) (A) (A) (A) (A)
                 (A) (A) (A) (A) (A) (A) (A) (A) (A) (A) (A) (A)
                 (A) (A) (A) (A) (A) (A) (A) (A) (A) (A) (A) (A)
                 (A) (A) (A) (A) (A) (A) (A) (A) (A) (A) (A) (A)
                 (A) (A) (A) (A) (A) (A) (A) (A) (A) (A) (A) (A)
                 (A) (A) (A) (A) (A) (A) (A) (A) (A) (A) (A) (A)
                 (A) (A) (A) (A) (A) (A) (A) (A) (A) (A) (A) (A)
                 (A) (A) (A) (A) (A) (A) (A) (A) (A) (A) (A) (A)
                 (A) (A) (A) (A) (A) (A) (A) (A) (A) (A) (A) (A)
                 (A) (A) (A) (A) (A) (A) (A) (A) (A) (A) (A) (A)
                 (A) (A) (A) (A) (A) (A) (A) (A) (A) (A) (A) (A)
                 (A) (A) (A) (A) (A) (A) (A) (A) (A) (A) (A) (A)
                 (A) (A) (A) (A) (A) (A) (A) (A) (A) (A) (A) (A)
                 (A) (A) (A) (A) (A) (A) (A) (A) (A) (A) (A) (A)
                 (A) (A) (A) (A) (A) (A) (A) (A) (A) (A) (A) (A)
                 (A) (A) (A) (A) (A) (A) (A) (A) (A) (A) (A) (A)
                 (A) (A) (A) (A) (A) (A) (A) (A) (A) (A) (A) (A)
                 (A) (A) (A) (A) (A) (A) (A) (A) (A) (A) (A) (A)
                 (A) (A) (A) (A) (A) (A) (A) (A) (A) (A) (A) (A)
                 (A) (A) (A) (A) (A) (A) (A) (A) (A) (A) (A) (A)
                 (A) (A) (A) (A) (A) (A) (A) (A) (A) (A) (A) (A)
                 (A) (A) (A) (A) (A) (A) (A) (A) (A) (A) (A) (A)
                 (A) (A) (A) (A) (A) (A) (A) (A) (A) (A) (A) (A)
                 (A) (A) (A) (A) (A) (A) (A) (A) (A) (A) (A) (A)
                 (A) (A) (A) (A) (A) (A) (A) (A) (A) (A) (A) (A)
                 (A) (A) (A) (A) (A) (A) (A) (A) (A) (A) (A) (A)
                 (A) (A) (A) (A) (A) (A) (A) (A) (A) (A) (A) (A)
                 (A) (A) (A) (A) (A) (A) (A) (A) (A) (A) (A) (A)
                 (A) (A) (A) (A) (A) (A) (A) (A) (A) (A) (A) (A)
                 (A) (A) (A) (A) (A) (A) (A) (A) (A) (A) (A) (A)
                 (A) (A) (A) (A) (A) (A) (A) (A) (A) (A) (A) (A)
                 (A) (A) (A) (A) (A) (A) (A) (A) (A) (A) (A) (A)
                 (A) (A) (A) (A) (A) (A) (A) (A) (A) (A) (A) (A)
                 (A) (A) (A) (A) (A) (A) (A) (A) (A) (A) (A) (A)
                 (A) (A) (A) (A) (A) (A) (A) (A) (A) (A) (A) (A)
                 (A) (A) (A) (A) (A) (A) (A) (A) (A) (A) (A)
 Beta  Orbitals:
       Occupied  (A) (A) (A) (A) (A) (A) (A) (A) (A) (A) (A) (A)
                 (A) (A) (A) (A) (A) (A) (A) (A) (A) (A) (A) (A)
                 (A) (A) (A) (A) (A) (A) (A) (A) (A) (A) (A) (A)
                 (A) (A) (A) (A) (A) (A) (A) (A) (A) (A) (A) (A)
                 (A) (A) (A) (A) (A) (A) (A) (A) (A) (A) (A) (A)
                 (A) (A) (A) (A) (A) (A) (A) (A) (A) (A) (A) (A)
                 (A) (A) (A) (A) (A) (A)
       Virtual   (A) (A) (A) (A) (A) (A) (A) (A) (A) (A) (A) (A)
                 (A) (A) (A) (A) (A) (A) (A) (A) (A) (A) (A) (A)
                 (A) (A) (A) (A) (A) (A) (A) (A) (A) (A) (A) (A)
                 (A) (A) (A) (A) (A) (A) (A) (A) (A) (A) (A) (A)
                 (A) (A) (A) (A) (A) (A) (A) (A) (A) (A) (A) (A)
                 (A) (A) (A) (A) (A) (A) (A) (A) (A) (A) (A) (A)
                 (A) (A) (A) (A) (A) (A) (A) (A) (A) (A) (A) (A)
                 (A) (A) (A) (A) (A) (A) (A) (A) (A) (A) (A) (A)
                 (A) (A) (A) (A) (A) (A) (A) (A) (A) (A) (A) (A)
                 (A) (A) (A) (A) (A) (A) (A) (A) (A) (A) (A) (A)
                 (A) (A) (A) (A) (A) (A) (A) (A) (A) (A) (A) (A)
                 (A) (A) (A) (A) (A) (A) (A) (A) (A) (A) (A) (A)
                 (A) (A) (A) (A) (A) (A) (A) (A) (A) (A) (A) (A)
                 (A) (A) (A) (A) (A) (A) (A) (A) (A) (A) (A) (A)
                 (A) (A) (A) (A) (A) (A) (A) (A) (A) (A) (A) (A)
                 (A) (A) (A) (A) (A) (A) (A) (A) (A) (A) (A) (A)
                 (A) (A) (A) (A) (A) (A) (A) (A) (A) (A) (A) (A)
                 (A) (A) (A) (A) (A) (A) (A) (A) (A) (A) (A) (A)
                 (A) (A) (A) (A) (A) (A) (A) (A) (A) (A) (A) (A)
                 (A) (A) (A) (A) (A) (A) (A) (A) (A) (A) (A) (A)
                 (A) (A) (A) (A) (A) (A) (A) (A) (A) (A) (A) (A)
                 (A) (A) (A) (A) (A) (A) (A) (A) (A) (A) (A) (A)
                 (A) (A) (A) (A) (A) (A) (A) (A) (A) (A) (A) (A)
                 (A) (A) (A) (A) (A) (A) (A) (A) (A) (A) (A) (A)
                 (A) (A) (A) (A) (A) (A) (A) (A) (A) (A) (A) (A)
                 (A) (A) (A) (A) (A) (A) (A) (A) (A) (A) (A) (A)
                 (A) (A) (A) (A) (A) (A) (A) (A) (A) (A) (A) (A)
                 (A) (A) (A) (A) (A) (A) (A) (A) (A) (A) (A) (A)
                 (A) (A) (A) (A) (A) (A) (A) (A) (A) (A) (A) (A)
                 (A) (A) (A) (A) (A) (A) (A) (A) (A) (A) (A) (A)
                 (A) (A) (A) (A) (A) (A) (A) (A) (A) (A) (A) (A)
                 (A) (A) (A) (A) (A) (A) (A) (A) (A) (A) (A) (A)
                 (A) (A) (A) (A) (A) (A) (A) (A) (A) (A) (A) (A)
                 (A) (A) (A) (A) (A) (A) (A) (A) (A) (A) (A) (A)
                 (A) (A) (A) (A) (A) (A) (A) (A) (A) (A) (A) (A)
                 (A) (A) (A) (A) (A) (A) (A) (A) (A) (A) (A) (A)
                 (A) (A) (A) (A) (A) (A) (A) (A) (A) (A) (A) (A)
 The electronic state is 2-A.
 Alpha  occ. eigenvalues --  -19.66818 -19.62771 -19.61878 -19.61874 -14.84445
 Alpha  occ. eigenvalues --  -14.71968 -10.67721 -10.59492 -10.59484 -10.59278
 Alpha  occ. eigenvalues --  -10.57432 -10.53924 -10.53921 -10.53844 -10.53135
 Alpha  occ. eigenvalues --  -10.53113 -10.52768 -10.52765 -10.52559 -10.52515
 Alpha  occ. eigenvalues --   -1.24328  -1.23940  -1.15000  -1.14809  -1.02317
 Alpha  occ. eigenvalues --   -0.98624  -0.93121  -0.86597  -0.86096  -0.84161
 Alpha  occ. eigenvalues --   -0.82563  -0.79345  -0.78404  -0.78289  -0.73543
 Alpha  occ. eigenvalues --   -0.69473  -0.69040  -0.66464  -0.65616  -0.62494
 Alpha  occ. eigenvalues --   -0.60458  -0.60118  -0.58938  -0.58560  -0.56971
 Alpha  occ. eigenvalues --   -0.56250  -0.55990  -0.53248  -0.52938  -0.52631
 Alpha  occ. eigenvalues --   -0.51654  -0.50296  -0.50049  -0.48659  -0.48158
 Alpha  occ. eigenvalues --   -0.47694  -0.46567  -0.46383  -0.45918  -0.44731
 Alpha  occ. eigenvalues --   -0.44267  -0.43724  -0.43499  -0.43140  -0.42455
 Alpha  occ. eigenvalues --   -0.41737  -0.41462  -0.41021  -0.40333  -0.40102
 Alpha  occ. eigenvalues --   -0.39980  -0.39120  -0.38109  -0.37291  -0.35808
 Alpha  occ. eigenvalues --   -0.34922  -0.34300  -0.28614  -0.27285
 Alpha virt. eigenvalues --    0.05032   0.06354   0.07556   0.08132   0.08526
 Alpha virt. eigenvalues --    0.09078   0.09550   0.10325   0.10582   0.10914
 Alpha virt. eigenvalues --    0.11956   0.12664   0.14326   0.14575   0.14852
 Alpha virt. eigenvalues --    0.15149   0.16030   0.16207   0.16511   0.16939
 Alpha virt. eigenvalues --    0.17706   0.17845   0.18209   0.19637   0.20020
 Alpha virt. eigenvalues --    0.20326   0.20774   0.21176   0.21677   0.21899
 Alpha virt. eigenvalues --    0.22461   0.22744   0.23385   0.24073   0.25256
 Alpha virt. eigenvalues --    0.25955   0.26278   0.27339   0.28734   0.29176
 Alpha virt. eigenvalues --    0.29345   0.29682   0.30823   0.30930   0.32086
 Alpha virt. eigenvalues --    0.33460   0.33973   0.34636   0.34792   0.35875
 Alpha virt. eigenvalues --    0.36659   0.37083   0.38441   0.39098   0.39724
 Alpha virt. eigenvalues --    0.41017   0.42463   0.42767   0.43241   0.44464
 Alpha virt. eigenvalues --    0.44917   0.45668   0.46198   0.46908   0.47775
 Alpha virt. eigenvalues --    0.48731   0.48902   0.49786   0.50637   0.51579
 Alpha virt. eigenvalues --    0.51855   0.52682   0.53590   0.53760   0.54489
 Alpha virt. eigenvalues --    0.55689   0.57255   0.57443   0.58144   0.58466
 Alpha virt. eigenvalues --    0.59490   0.60136   0.60754   0.61512   0.61699
 Alpha virt. eigenvalues --    0.62164   0.62298   0.63020   0.63232   0.63736
 Alpha virt. eigenvalues --    0.64073   0.64514   0.64843   0.65161   0.65528
 Alpha virt. eigenvalues --    0.65582   0.65922   0.66090   0.66824   0.67083
 Alpha virt. eigenvalues --    0.67306   0.67798   0.68191   0.68497   0.68789
 Alpha virt. eigenvalues --    0.69230   0.69474   0.69803   0.70357   0.70707
 Alpha virt. eigenvalues --    0.71234   0.73249   0.73870   0.74331   0.74474
 Alpha virt. eigenvalues --    0.75866   0.76400   0.77290   0.78520   0.79951
 Alpha virt. eigenvalues --    0.83957   0.85545   0.86289   0.88017   0.88501
 Alpha virt. eigenvalues --    0.89498   0.90205   0.93603   0.93761   0.94310
 Alpha virt. eigenvalues --    0.96213   0.96796   0.97900   0.98326   0.98641
 Alpha virt. eigenvalues --    0.99819   1.00737   1.03143   1.03939   1.05000
 Alpha virt. eigenvalues --    1.06092   1.07881   1.08816   1.10459   1.11614
 Alpha virt. eigenvalues --    1.12344   1.12907   1.15285   1.17349   1.18452
 Alpha virt. eigenvalues --    1.19114   1.21686   1.24451   1.24857   1.25440
 Alpha virt. eigenvalues --    1.28328   1.29746   1.30934   1.31679   1.33485
 Alpha virt. eigenvalues --    1.34534   1.34928   1.35500   1.37799   1.40084
 Alpha virt. eigenvalues --    1.40322   1.42065   1.42947   1.44638   1.44841
 Alpha virt. eigenvalues --    1.45476   1.45801   1.46553   1.47206   1.47814
 Alpha virt. eigenvalues --    1.48391   1.48834   1.49299   1.49830   1.50339
 Alpha virt. eigenvalues --    1.50985   1.51757   1.51916   1.52385   1.54009
 Alpha virt. eigenvalues --    1.54525   1.54810   1.55007   1.55669   1.56649
 Alpha virt. eigenvalues --    1.57680   1.57839   1.58856   1.59208   1.60429
 Alpha virt. eigenvalues --    1.61254   1.62035   1.62166   1.62628   1.63780
 Alpha virt. eigenvalues --    1.64528   1.64978   1.65783   1.66878   1.67013
 Alpha virt. eigenvalues --    1.68523   1.68840   1.69378   1.70433   1.70998
 Alpha virt. eigenvalues --    1.71595   1.71822   1.72086   1.72542   1.73962
 Alpha virt. eigenvalues --    1.74587   1.74940   1.75629   1.76008   1.76303
 Alpha virt. eigenvalues --    1.77727   1.78363   1.78952   1.79920   1.80035
 Alpha virt. eigenvalues --    1.81059   1.81988   1.82772   1.83844   1.85106
 Alpha virt. eigenvalues --    1.85918   1.86355   1.87358   1.87870   1.88448
 Alpha virt. eigenvalues --    1.88653   1.89972   1.90511   1.91991   1.93231
 Alpha virt. eigenvalues --    1.93421   1.94704   1.95756   1.97129   1.97962
 Alpha virt. eigenvalues --    1.98162   1.99282   2.00014   2.02155   2.03286
 Alpha virt. eigenvalues --    2.03786   2.06687   2.07370   2.08606   2.09264
 Alpha virt. eigenvalues --    2.09385   2.11974   2.12249   2.14003   2.14749
 Alpha virt. eigenvalues --    2.14973   2.17001   2.18312   2.18991   2.21156
 Alpha virt. eigenvalues --    2.22009   2.22588   2.23794   2.24728   2.25725
 Alpha virt. eigenvalues --    2.26359   2.26627   2.27129   2.30150   2.30975
 Alpha virt. eigenvalues --    2.32538   2.34266   2.36234   2.36937   2.38121
 Alpha virt. eigenvalues --    2.41235   2.41371   2.41533   2.42239   2.45785
 Alpha virt. eigenvalues --    2.46777   2.48017   2.48362   2.49011   2.49296
 Alpha virt. eigenvalues --    2.50378   2.50778   2.51095   2.52690   2.53526
 Alpha virt. eigenvalues --    2.54576   2.55457   2.56527   2.56708   2.57348
 Alpha virt. eigenvalues --    2.57693   2.57899   2.58533   2.59266   2.59497
 Alpha virt. eigenvalues --    2.60069   2.60912   2.61223   2.62172   2.63304
 Alpha virt. eigenvalues --    2.64509   2.65093   2.66845   2.67214   2.68405
 Alpha virt. eigenvalues --    2.69261   2.70096   2.70413   2.70614   2.71538
 Alpha virt. eigenvalues --    2.73799   2.74048   2.76421   2.76918   2.77788
 Alpha virt. eigenvalues --    2.78397   2.79480   2.81767   2.82568   2.84364
 Alpha virt. eigenvalues --    2.85902   2.86473   2.87903   2.88226   2.89216
 Alpha virt. eigenvalues --    2.89590   2.89943   2.91725   2.93999   2.94291
 Alpha virt. eigenvalues --    2.95131   2.96676   2.97407   3.01087   3.02051
 Alpha virt. eigenvalues --    3.02466   3.05124   3.06597   3.07334   3.09992
 Alpha virt. eigenvalues --    3.10553   3.12180   3.16550   3.17592   3.18101
 Alpha virt. eigenvalues --    3.20852   3.22821   3.22972   3.24337   3.24614
 Alpha virt. eigenvalues --    3.25970   3.29635   3.30066   3.32233   3.33634
 Alpha virt. eigenvalues --    3.39595   3.40699   3.41358   3.42026   3.51079
 Alpha virt. eigenvalues --    3.52231   3.55572   3.60733   3.61460   3.65403
 Alpha virt. eigenvalues --    3.69822   3.74889   3.77946   3.80353   3.80686
 Alpha virt. eigenvalues --    3.81199   3.81912   3.82886   3.83523   3.84795
 Alpha virt. eigenvalues --    3.86130   3.86390   3.87478   3.88699   3.89883
 Alpha virt. eigenvalues --    3.90460   3.91984   3.95827   3.96257   4.00268
 Alpha virt. eigenvalues --    4.03097   4.13508   4.17725   4.20833   4.23676
 Alpha virt. eigenvalues --    4.24219   4.27394   4.32965   4.36793   4.37627
 Alpha virt. eigenvalues --    4.38451   4.39017   4.84467   4.91847   4.91897
 Alpha virt. eigenvalues --    4.93805   4.95552   5.02951   5.03857   5.05901
 Alpha virt. eigenvalues --    5.16006   5.21322   5.36993   5.39776   5.67046
 Alpha virt. eigenvalues --    5.74806   5.83361   6.03634  23.78085  23.83139
 Alpha virt. eigenvalues --   23.87093  23.88877  23.89883  23.94582  23.95717
 Alpha virt. eigenvalues --   23.97213  23.97779  24.00636  24.00883  24.02931
 Alpha virt. eigenvalues --   24.03378  24.08123  35.54825  35.68920  49.95886
 Alpha virt. eigenvalues --   50.02248  50.05035  50.10592
  Beta  occ. eigenvalues --  -19.66818 -19.61878 -19.61873 -19.61782 -14.83591
  Beta  occ. eigenvalues --  -14.71967 -10.67721 -10.59524 -10.59516 -10.59279
  Beta  occ. eigenvalues --  -10.57432 -10.53922 -10.53919 -10.53844 -10.53098
  Beta  occ. eigenvalues --  -10.53076 -10.52753 -10.52750 -10.52560 -10.52519
  Beta  occ. eigenvalues --   -1.24328  -1.21003  -1.14996  -1.14809  -1.02313
  Beta  occ. eigenvalues --   -0.97341  -0.92924  -0.86098  -0.85872  -0.84142
  Beta  occ. eigenvalues --   -0.81099  -0.79109  -0.78336  -0.78201  -0.73517
  Beta  occ. eigenvalues --   -0.69211  -0.68467  -0.66417  -0.65534  -0.61842
  Beta  occ. eigenvalues --   -0.60413  -0.59780  -0.58794  -0.58257  -0.56284
  Beta  occ. eigenvalues --   -0.55810  -0.53222  -0.53053  -0.52620  -0.52366
  Beta  occ. eigenvalues --   -0.51370  -0.50194  -0.49899  -0.48167  -0.47780
  Beta  occ. eigenvalues --   -0.47141  -0.46466  -0.46141  -0.45732  -0.43876
  Beta  occ. eigenvalues --   -0.43759  -0.43659  -0.43327  -0.42550  -0.42305
  Beta  occ. eigenvalues --   -0.41533  -0.41452  -0.40647  -0.40122  -0.39805
  Beta  occ. eigenvalues --   -0.39147  -0.38349  -0.37338  -0.37007  -0.35786
  Beta  occ. eigenvalues --   -0.34704  -0.33042  -0.28578
  Beta virt. eigenvalues --   -0.02275   0.05033   0.06386   0.07592   0.08124
  Beta virt. eigenvalues --    0.08553   0.09064   0.09563   0.10347   0.10652
  Beta virt. eigenvalues --    0.10949   0.11978   0.12702   0.14300   0.14604
  Beta virt. eigenvalues --    0.14848   0.15184   0.16056   0.16252   0.16516
  Beta virt. eigenvalues --    0.17073   0.17811   0.17911   0.18252   0.19664
  Beta virt. eigenvalues --    0.20093   0.20679   0.20814   0.21229   0.21702
  Beta virt. eigenvalues --    0.21924   0.22520   0.22966   0.23610   0.24396
  Beta virt. eigenvalues --    0.25275   0.26208   0.26484   0.27388   0.28849
  Beta virt. eigenvalues --    0.29341   0.29523   0.29812   0.30928   0.31078
  Beta virt. eigenvalues --    0.32152   0.33534   0.34135   0.34705   0.35015
  Beta virt. eigenvalues --    0.36105   0.36712   0.37190   0.38747   0.39192
  Beta virt. eigenvalues --    0.39761   0.41306   0.42514   0.43114   0.43295
  Beta virt. eigenvalues --    0.44611   0.45047   0.45748   0.46265   0.46948
  Beta virt. eigenvalues --    0.47794   0.48868   0.48947   0.49969   0.50699
  Beta virt. eigenvalues --    0.51733   0.51920   0.52773   0.53721   0.53849
  Beta virt. eigenvalues --    0.54647   0.55719   0.57392   0.57532   0.58225
  Beta virt. eigenvalues --    0.58493   0.59590   0.60205   0.60916   0.61639
  Beta virt. eigenvalues --    0.61749   0.62212   0.62384   0.63046   0.63313
  Beta virt. eigenvalues --    0.63796   0.64120   0.64604   0.64908   0.65228
  Beta virt. eigenvalues --    0.65581   0.65619   0.65952   0.66202   0.66857
  Beta virt. eigenvalues --    0.67103   0.67373   0.67852   0.68257   0.68591
  Beta virt. eigenvalues --    0.68820   0.69252   0.69486   0.69880   0.70404
  Beta virt. eigenvalues --    0.70769   0.71354   0.73297   0.74141   0.74391
  Beta virt. eigenvalues --    0.74517   0.76021   0.76534   0.77352   0.78576
  Beta virt. eigenvalues --    0.79990   0.84181   0.86146   0.87039   0.88243
  Beta virt. eigenvalues --    0.88547   0.89638   0.90443   0.93811   0.94170
  Beta virt. eigenvalues --    0.94672   0.96617   0.96990   0.98013   0.98365
  Beta virt. eigenvalues --    0.98690   1.00006   1.00876   1.03165   1.04373
  Beta virt. eigenvalues --    1.05169   1.06142   1.07912   1.09533   1.10559
  Beta virt. eigenvalues --    1.11685   1.12395   1.13653   1.15361   1.17570
  Beta virt. eigenvalues --    1.18559   1.19185   1.21983   1.24533   1.24907
  Beta virt. eigenvalues --    1.25598   1.28407   1.29805   1.30974   1.31770
  Beta virt. eigenvalues --    1.33679   1.34771   1.35058   1.35891   1.37866
  Beta virt. eigenvalues --    1.40118   1.40351   1.42384   1.43072   1.44715
  Beta virt. eigenvalues --    1.44909   1.45522   1.45841   1.46661   1.47224
  Beta virt. eigenvalues --    1.47857   1.48430   1.48908   1.49354   1.49868
  Beta virt. eigenvalues --    1.50389   1.51014   1.51809   1.51964   1.52441
  Beta virt. eigenvalues --    1.54106   1.54577   1.54820   1.55047   1.55752
  Beta virt. eigenvalues --    1.56687   1.57707   1.57899   1.58912   1.59260
  Beta virt. eigenvalues --    1.60498   1.61260   1.62099   1.62218   1.62651
  Beta virt. eigenvalues --    1.63802   1.64548   1.65018   1.65886   1.66916
  Beta virt. eigenvalues --    1.67054   1.68638   1.68898   1.69462   1.70479
  Beta virt. eigenvalues --    1.71082   1.71764   1.71843   1.72131   1.72618
  Beta virt. eigenvalues --    1.73996   1.74648   1.74963   1.75651   1.76020
  Beta virt. eigenvalues --    1.76339   1.77790   1.78507   1.79113   1.79994
  Beta virt. eigenvalues --    1.80085   1.81172   1.82092   1.82811   1.83875
  Beta virt. eigenvalues --    1.85188   1.85964   1.86407   1.87703   1.88251
  Beta virt. eigenvalues --    1.88552   1.88959   1.90065   1.90691   1.92140
  Beta virt. eigenvalues --    1.93264   1.93477   1.94718   1.95762   1.97189
  Beta virt. eigenvalues --    1.98023   1.98195   1.99309   2.00052   2.02219
  Beta virt. eigenvalues --    2.03311   2.03955   2.06822   2.07532   2.09043
  Beta virt. eigenvalues --    2.09404   2.09826   2.12113   2.12326   2.14065
  Beta virt. eigenvalues --    2.14772   2.15009   2.17081   2.18368   2.19009
  Beta virt. eigenvalues --    2.21286   2.22252   2.22641   2.24027   2.24907
  Beta virt. eigenvalues --    2.25831   2.26407   2.26734   2.27223   2.30486
  Beta virt. eigenvalues --    2.31179   2.32698   2.34381   2.36242   2.37190
  Beta virt. eigenvalues --    2.38221   2.41267   2.41434   2.41665   2.42361
  Beta virt. eigenvalues --    2.45935   2.47071   2.48029   2.48403   2.49042
  Beta virt. eigenvalues --    2.49401   2.50399   2.50861   2.51115   2.52752
  Beta virt. eigenvalues --    2.53610   2.54724   2.55520   2.56695   2.56770
  Beta virt. eigenvalues --    2.57385   2.57749   2.57946   2.58601   2.59322
  Beta virt. eigenvalues --    2.59588   2.60162   2.60970   2.61291   2.62234
  Beta virt. eigenvalues --    2.63359   2.64544   2.65198   2.66920   2.67264
  Beta virt. eigenvalues --    2.68505   2.69323   2.70165   2.70474   2.70682
  Beta virt. eigenvalues --    2.71557   2.73879   2.74162   2.76439   2.76929
  Beta virt. eigenvalues --    2.77888   2.78470   2.79652   2.81900   2.82579
  Beta virt. eigenvalues --    2.84370   2.85990   2.86586   2.88157   2.88511
  Beta virt. eigenvalues --    2.89553   2.89803   2.90331   2.92012   2.94387
  Beta virt. eigenvalues --    2.95146   2.96170   2.96738   2.97521   3.01197
  Beta virt. eigenvalues --    3.02077   3.03069   3.05214   3.07016   3.07775
  Beta virt. eigenvalues --    3.10328   3.10777   3.12191   3.16563   3.17712
  Beta virt. eigenvalues --    3.18134   3.20905   3.22879   3.23589   3.24404
[...]
 00081618,-0.00008111,0.00026781,-0.00007851,0.00017075,0.00009652,-0.0
 0012488,0.00015642,0.00020541,-0.00020059,0.00039168,-0.00035310,-0.00
 015471,0.00106797,-0.00042597,-0.00135515,0.22775495,0.00001019,-0.000
 00215,-0.00000649,-0.00000129,0.00000157,0.00000145,-0.00000777,-0.000
 04770,0.00002836,0.00001183,-0.00003306,-0.00000191,-0.00007806,0.0000
 0362,0.00003189,0.00000536,0.00001784,-0.00001333,-0.00000531,-0.00000
 605,0.00000809,-0.00000123,-0.00000311,0.00000161,-0.00000361,0.000011
 15,0.00000984,0.00000087,0.00000112,-0.00000144,0.00004759,0.00013988,
 0.00001050,-0.00000103,-0.00000233,-0.00000163,0.00002360,0.00003194,-
 0.00007817,-0.00000443,0.00000238,0.00000032,0.00000282,0.00000041,-0.
 00000058,-0.00000017,0.00000189,-0.00000046,-0.00000036,0.00000067,0.0
 0000024,0.00000016,0.00000050,0.00000025,0.00000017,0.00000007,-0.0000
 0011,0.00000003,0.00000151,-0.00000005,0.00004904,-0.00000605,-0.00000
 871,-0.00003522,0.00000617,-0.00000075,-0.00013344,-0.00016944,-0.0000
 5398,-0.00000009,0.00000089,0.00000093,-0.00000068,-0.00000012,-0.0000
 0114,0.00000054,0.00000156,0.00000059,0.00000027,0.00000006,0.00000272
 ,-0.00001800,0.00002551,0.00001500,-0.00001664,-0.00005446,0.00007869,
 0.00003060,-0.00000480,-0.00001273,-0.00039372,-0.00011490,-0.00058325
 ,-0.00013925,0.00091761,-0.00147999,0.02361976,-0.03400304,0.01558052,
 0.00261459,0.00032500,-0.00295278,-0.00018745,-0.00015819,0.00035153,-
 0.01105825,0.00518549,-0.00518305,0.08790964,-0.09408258,0.04061825,0.
 00023259,-0.00027926,0.00281845,-0.00084732,-0.00001089,0.00049864,0.0
 0006686,-0.00000841,0.00007571,0.00018971,0.00013412,0.00018277,-0.000
 25072,0.00067593,0.00069356,-0.00050416,0.00031790,-0.00315956,-0.0988
 4062,0.11587930,0.00002492,-0.00002001,-0.00001226,-0.00000215,0.00000
 329,0.00000297,-0.00006290,0.00011287,-0.00001934,0.00005382,0.0001377
 9,0.00000070,0.00067411,0.00005919,-0.00013383,-0.00001657,-0.00000315
 ,0.00000433,-0.00001302,0.00001870,0.00002263,-0.00000505,0.00001757,-
 0.00003003,-0.00008006,-0.00009438,0.00000938,0.00000403,-0.00001477,-
 0.00002398,-0.00006359,-0.00005672,0.00008321,0.00004617,0.00001888,-0
 .00002242,-0.00005173,-0.00003039,0.00000954,0.00000655,-0.00001208,-0
 .00000245,0.00000731,0.00000116,0.00000105,0.00001497,-0.00000686,-0.0
 0000600,0.00000140,-0.00000133,0.00000393,0.00000854,0.00000980,-0.000
 00388,-0.00000142,-0.00000144,0.00000356,0.00000053,-0.00000632,0.0000
 0410,0.00002138,-0.00001422,-0.00000588,0.00004770,-0.00001976,0.00000
 548,-0.00010584,0.00011396,-0.00016580,-0.00000172,0.00000074,-0.00000
 010,0.00000082,-0.00000391,0.00001523,-0.00000779,0.00000505,-0.000020
 89,-0.00000050,-0.00000400,0.00000350,0.00001792,-0.00003693,-0.000012
 44,0.00001804,0.00010026,0.00010690,0.00001981,-0.00001972,-0.00001037
 ,-0.00019263,0.00008290,0.00021218,0.00009644,-0.00044190,0.00015666,-
 0.00161238,0.00388471,0.00086278,-0.00095968,0.00034525,0.00054462,-0.
 00036801,-0.00041068,0.00103278,-0.02629255,0.01189829,-0.01174367,-0.
 06776775,0.04128058,-0.08535245,0.00017553,0.00032507,-0.00061668,0.00
 022246,0.00004548,0.00004731,0.00018520,-0.00010546,0.00012010,0.00022
 848,0.00003530,-0.00025741,0.00029480,-0.00003174,0.00165517,-0.000578
 13,-0.00102322,-0.00538280,0.08051774,-0.04649948,0.08952127,0.0000877
 1,-0.00007064,-0.00005181,-0.00000746,0.00001164,0.00001261,-0.0001786
 4,0.00040047,-0.00009933,-0.00040149,0.00061910,0.00052804,-0.00165781
 ,-0.00073969,0.00007705,-0.00010330,-0.00003884,-0.00005292,-0.0000423
 8,0.00005802,0.00009194,-0.00002254,0.00008044,-0.00011087,-0.00024697
 ,-0.00027817,0.00025315,0.00001649,-0.00004349,-0.00009732,-0.00026055
 ,0.00002055,-0.00000807,0.00015490,0.00007754,-0.00007820,-0.00003894,
 -0.00002608,0.00010506,0.00004264,-0.00005703,-0.00000928,0.00000251,0
 .00001056,-0.00000293,0.00005209,-0.00002850,-0.00002480,0.00000102,-0
 .00000224,0.00001273,0.00003204,0.00004153,-0.00001546,-0.00001326,-0.
 00000694,0.00001113,0.00000473,-0.00002927,0.00001508,0.00006945,-0.00
 000856,-0.00001347,0.00007132,-0.00010651,0.00002736,0.00033045,0.0001
 1319,-0.00034851,-0.00000877,0.00000262,-0.00000769,0.00002863,-0.0000
 1769,0.00003643,-0.00002308,0.00000957,-0.00007694,-0.00000383,-0.0000
 1475,0.00000234,-0.00007533,-0.00004627,-0.00002925,0.00033282,0.00017
 429,0.00006177,0.00001331,-0.00002115,-0.00003427,-0.00005948,0.000050
 85,0.00022177,-0.00020608,-0.00040760,0.00025926,-0.00098955,-0.003295
 31,0.00190180,0.00088373,-0.00039333,-0.00153351,0.00074920,-0.0002340
 7,-0.00232230,0.00724680,0.00260425,-0.00535332,-0.21986450,-0.0267702
 1,0.13142558,0.00028486,0.00036923,-0.00074332,-0.00005348,0.00005113,
 0.00002772,0.00024232,0.00026663,-0.00024663,0.00016479,0.00013138,-0.
 00015382,-0.00000512,-0.00020708,0.00039857,0.00071605,0.00022119,0.00
 020457,-0.01818323,-0.00198269,0.01464142,0.23126226,-0.00009056,0.000
 03901,0.00004951,0.00000949,-0.00001389,-0.00000956,0.00030027,0.00005
 804,-0.00012182,0.00025637,-0.00004377,-0.00007563,-0.00057822,-0.0006
 7772,-0.00003490,-0.00004213,-0.00010945,0.00004314,0.00004415,0.00001
 414,-0.00007041,0.00001376,0.00001025,0.00001714,0.00012744,0.00002580
 ,0.00000241,-0.00001043,0.00000871,0.00003011,0.00029843,-0.00009826,-
 0.00016168,-0.00004690,0.00000254,0.00002537,0.00042675,-0.00027505,0.
 00021210,0.00001075,0.00000523,0.00000455,-0.00004137,0.00000848,0.000
 00146,-0.00001285,-0.00000663,0.00000874,-0.00000406,-0.00000261,-0.00
 000640,-0.00001146,-0.00001283,0.00000384,0.00000014,0.00000105,-0.000
 00425,-0.00000120,0.00000648,-0.00000129,-0.00016251,0.00006019,-0.000
 01087,-0.00012577,0.00008900,0.00000307,0.00017150,-0.00042784,0.00062
 432,0.00000504,-0.00000736,-0.00000739,-0.00000410,-0.00000635,0.00001
 110,0.00000073,-0.00001364,0.00001861,0.00000074,0.00000141,-0.0000177
 8,-0.00008060,0.00009091,0.00000074,-0.00004600,-0.00066953,-0.0007586
 7,-0.00021503,0.00017489,0.00007018,-0.00080210,0.00009198,0.00003233,
 -0.00027261,0.00026181,-0.00028228,-0.02517980,-0.00823980,0.02519625,
 -0.00227498,-0.00579736,-0.00009345,-0.00159342,-0.00154133,-0.0024790
 2,0.01047388,0.00288608,-0.00633539,-0.02056074,-0.05297080,0.01647964
 ,0.00064031,-0.00040347,0.00113163,-0.00086368,-0.00008333,0.00101467,
 0.00050242,0.00057252,-0.00030842,0.00001608,0.00003759,0.00017123,-0.
 00001196,-0.00028234,0.00027817,-0.00029233,0.00036838,0.00083693,0.01
 097237,0.00312568,-0.00932427,0.02976486,0.06368475,0.00003366,-0.0000
 2163,-0.00002322,-0.00000275,0.00000477,0.00000467,0.00003374,0.000053
 82,0.00021587,0.00026872,0.00029343,-0.00039516,0.00135938,-0.00009610
 ,-0.00053671,-0.00001795,0.00002045,-0.00010209,-0.00000146,-0.0000029
 9,0.00003172,0.00000238,0.00001216,-0.00005493,0.00002296,-0.00013785,
 -0.00002064,-0.00000195,-0.00001034,-0.00001450,-0.00031932,-0.0000281
 3,0.00014409,0.00004198,-0.00001461,0.00000664,0.00021062,-0.00014111,
 -0.00005909,0.00000128,-0.00000660,0.00000008,-0.00001262,0.00000817,0
 .00000651,0.00001931,-0.00000776,-0.00000481,0.00000033,0.00000202,0.0
 0000306,0.00000760,0.00000576,-0.00000365,-0.00000085,0.00000010,0.000
 00254,-0.00000291,-0.00000778,0.00000419,0.00008589,-0.00003125,-0.000
 02018,0.00013366,-0.00008392,-0.00002471,-0.00031906,0.00054389,-0.000
 39287,-0.00000095,0.00000045,-0.00000628,-0.00001395,0.00001451,-0.000
 02161,-0.00000959,0.00000580,-0.00001078,0.00000025,-0.00000565,0.0000
 0017,0.00000303,0.00001396,0.00000172,-0.00002563,-0.00035864,-0.00006
 257,-0.00003609,0.00001217,-0.00001493,0.00023574,0.00000041,0.0001009
 7,0.00002318,-0.00038749,0.00038091,-0.00003424,0.00059451,-0.00000366
 ,0.00023582,-0.00060031,-0.00081304,-0.00067252,-0.00065401,-0.0042097
 0,0.02120010,0.00504842,-0.01504527,0.12591212,0.02193338,-0.14705081,
 -0.00025983,0.00048658,-0.00072453,0.00011532,0.00015842,0.00007146,0.
 00083045,0.00055783,-0.00074837,0.00036671,0.00011029,-0.00029213,-0.0
 0011411,-0.00042505,-0.00031182,0.00016288,0.00043866,0.00160760,-0.01
 045310,-0.00184224,0.00897545,-0.13912854,-0.02562527,0.15974238,0.000
 03897,-0.00001691,-0.00001459,-0.00000512,0.00000612,0.00000340,-0.000
 10027,-0.00014823,-0.00017411,0.00003008,-0.00001519,0.00003250,0.0000
 1913,0.00007408,0.00002052,0.00003664,0.00006714,0.00008156,-0.0000340
 4,0.00000562,0.00002139,-0.00000398,-0.00000099,-0.00000366,-0.0000449
 9,-0.00001298,0.00002108,0.00000370,-0.00000156,-0.00001005,-0.0000746
 8,-0.00003462,0.00007656,0.00001178,0.00000011,-0.00001942,0.00006346,
 0.00037369,-0.00036819,-0.00001155,0.00000512,-0.00000275,0.00004999,-
 0.00001337,-0.00000215,0.00000464,0.00000249,-0.00000356,0.00000234,0.
 00000110,0.00000200,0.00000381,0.00000502,-0.00000164,0.00000043,0.000
 00032,0.00000125,-0.00000102,-0.00000106,0.00000118,0.00000270,0.00000
 672,0.00002235,-0.00001528,0.00002283,-0.00000101,0.00012477,-0.000005
 95,-0.00017036,-0.00000172,0.00000478,0.00001490,0.00000107,-0.0000029
 4,0.00000301,0.00000279,0.00000918,-0.00000396,-0.00000189,0.00000138,
 0.00001776,-0.00003170,0.00006299,0.00000907,-0.00045250,-0.00032349,0
 .00045025,0.00024198,-0.00008113,-0.00004748,0.00195211,0.00038104,-0.
 00212236,0.00019244,-0.00053182,-0.00174718,-0.10908089,-0.10316840,-0
 .15648653,0.00572932,0.01275458,0.02273798,-0.00253582,0.00081682,0.00
 413317,0.00003658,-0.00203620,0.00128920,-0.00474700,0.00424088,-0.005
 34443,-0.00153652,0.00045698,0.00557403,0.00019376,-0.00019540,-0.0002
 6384,0.00002959,0.00034201,0.00022279,0.00031969,0.00069936,0.00065186
 ,0.00028460,-0.00022416,-0.00061873,0.00018063,0.00018828,0.00043424,0
 .00101234,-0.00016538,0.00085962,-0.00038001,-0.00064716,0.00012377,0.
 10862614,0.00000746,-0.00000406,-0.00000586,-0.00000020,0.00000146,0.0
 0000096,0.00002889,-0.00001003,0.00004953,-0.00001116,0.00000074,0.000
 00593,0.00002406,0.00001394,-0.00000090,0.00000421,0.00000625,-0.00001
 849,-0.00000115,-0.00000381,0.00000897,-0.00000164,0.00000009,-0.00000
 208,-0.00000820,-0.00000172,0.00000386,0.00000005,-0.00000077,-0.00000
 267,0.00007118,0.00008147,-0.00004122,0.00000312,0.00000319,-0.0000005
 2,-0.00007691,-0.00000036,0.00009022,0.00000199,-0.00000296,-0.0000014
 3,-0.00000264,-0.00000055,-0.00000249,0.00000129,0.00000025,-0.0000006
 0,0.,-0.00000039,0.00000062,0.00000105,0.00000119,-0.00000049,-0.00000
 011,-0.00000032,0.00000012,-0.00000003,-0.00000081,0.00000025,0.000026
 00,-0.00000747,-0.00000332,0.00000684,-0.00001963,0.00000028,-0.000156
 73,-0.00009499,0.00004667,-0.00000067,-0.00000020,-0.00000289,0.000000
 37,-0.00000039,0.00000108,-0.00000018,-0.00000013,-0.00000175,-0.00000
 033,-0.00000076,-0.00000021,-0.00000037,-0.00005374,0.00001399,-0.0000
 8027,0.00007868,0.00000294,-0.00001561,-0.00001898,-0.00000168,-0.0014
 9247,0.00003330,0.00104834,-0.00185086,-0.00081922,0.00091502,-0.07107
 535,-0.09715357,-0.10030608,0.00498782,0.00163577,0.00148553,-0.001455
 68,-0.00125739,-0.00010081,-0.00035678,-0.00679036,0.00015461,-0.01518
 208,-0.01446147,-0.02984239,-0.00024514,0.00122498,-0.00139809,-0.0002
 2131,-0.00070591,0.00046465,0.00012740,-0.00004787,-0.00012859,0.00008
 984,0.00028301,0.00003583,-0.00049775,-0.00025757,-0.00172372,-0.00019
 065,0.00010139,-0.00007424,0.00066221,0.00221247,-0.00034654,-0.000272
 17,0.00002707,0.00017151,0.08709949,0.11601963,0.00000138,-0.00000058,
 -0.00000179,0.00000026,0.00000006,0.00000084,-0.00003309,0.00004673,0.
 00007300,-0.00000336,0.00001671,-0.00000390,0.00005727,-0.00000988,-0.
 00002499,-0.00000740,-0.00001693,-0.00002441,0.00000218,-0.00000002,0.
 00000299,-0.00000045,0.00000173,-0.00000556,-0.00000512,-0.00000864,0.
 00000548,-0.00000050,-0.00000193,-0.00000205,0.00002544,0.00004254,0.0
 0001086,0.00000574,0.00000137,-0.00000216,0.00004405,-0.00007069,-0.00
 005186,0.00000292,-0.00000323,0.00000016,-0.00000987,0.00000276,-0.000
 00132,0.00000223,-0.00000061,-0.00000051,-0.00000038,-0.00000019,0.000
 00039,0.00000162,0.00000153,-0.00000082,-0.00000087,-0.00000021,-0.000
 00060,0.00000092,-0.00000081,0.00000060,0.00002299,-0.00000481,-0.0000
 0705,0.00000799,-0.00001087,-0.00000483,-0.00015607,-0.00004179,-0.000
 03127,-0.00000119,-0.00000063,-0.00000253,-0.00000117,0.00000136,0.000
 00208,-0.00000209,-0.00000048,-0.00000186,0.00000026,-0.00000208,-0.00
 000152,-0.00004389,-0.00000777,0.00002351,0.00003521,0.00008541,0.0000
 4594,-0.00002294,0.00001373,-0.00000258,-0.00084127,-0.00000183,0.0005
 6258,-0.00144863,0.00022095,0.00221570,-0.11943312,-0.12633731,-0.3005
 4634,-0.01370795,-0.01056075,-0.02335404,0.00224195,0.00029704,-0.0025
 1541,0.00112856,0.00197167,-0.00054072,0.00201140,0.00553851,0.0079973
 1,-0.00090134,-0.00008521,-0.00182824,0.00066610,-0.00004102,-0.001170
 77,-0.00010015,-0.00046168,-0.00037451,-0.00024677,-0.00047541,-0.0006
 4039,-0.00015637,0.00017830,0.00066500,-0.00001145,0.00003901,-0.00004
 334,0.00005481,0.00079104,0.00041425,0.00023099,-0.00059424,-0.0003257
 8,0.13055558,0.12947632,0.31940966,0.00000029,0.00000021,-0.00000051,-
 0.00000032,0.00000002,0.00000002,-0.00000131,0.00000251,-0.00000199,0.
 00000108,-0.00000029,-0.00000110,0.00000679,0.00000099,-0.00000170,0.0
 0000094,-0.00000009,-0.00000161,0.00000070,-0.00000019,0.00000127,-0.0
 0000021,-0.00000092,-0.00000100,0.00000023,-0.00000075,0.00000152,0.00
 000126,0.00000047,-0.00000166,-0.00000433,-0.00000311,-0.00000151,0.00
 000016,0.00000015,0.00000154,-0.00000321,0.00000035,0.00000267,-0.0000
 0065,-0.00000060,0.00000032,0.00000040,0.00000024,0.00000049,0.0000003
 5,0.00000013,-0.00000038,0.00000025,0.00000042,0.00000090,-0.00000043,
 -0.00000014,0.00000036,0.00000005,-0.00000002,0.00000055,-0.00000031,0
 .00000032,0.00000024,-0.00000151,0.00000080,0.00000070,0.00000164,-0.0
 0000131,-0.00000062,-0.00000314,0.00000428,0.00000359,-0.00000070,-0.0
 0000008,-0.00000042,-0.00000043,0.00000016,0.00000013,0.00000078,0.000
 00066,-0.00000120,-0.00000009,-0.00000048,0.00000016,0.00000024,-0.000
 00152,0.00000042,-0.00000003,-0.00000152,-0.00000135,-0.00000119,0.000
 00015,-0.00000013,-0.44439798,0.02796137,-0.12835740,0.00584443,0.0006
 4782,-0.00868611,-0.00064395,0.00026490,-0.00015449,0.00143517,-0.0008
 7378,0.00499568,0.00029770,0.00017338,-0.00019879,0.00014535,-0.000015
 97,0.00016355,-0.00012940,0.00011984,0.00002593,-0.04253867,0.00123530
 ,0.00070934,0.00044559,0.00034270,-0.00035448,0.00011684,-0.00003279,0
 .00004473,0.00000993,-0.00030934,-0.00022278,0.00002130,0.00003059,-0.
 00002756,0.00006978,0.00004617,-0.00004577,-0.00001024,-0.00013937,-0.
 00000626,0.00003573,-0.00006349,-0.00000348,-0.00013648,0.00005316,0.0
 0003561,0.47943760,-0.00000147,-0.00000007,0.00000088,0.00000033,-0.00
 000003,-0.00000019,-0.00000013,0.00000359,-0.00000284,-0.00000095,0.00
 000062,0.00000031,-0.00000157,-0.00000382,0.00000142,-0.00000027,-0.00
 000125,0.00000216,0.00000077,0.00000079,-0.00000117,0.00000005,0.00000
 008,0.00000045,0.00000183,0.00000051,-0.00000101,-0.00000035,0.0000002
 0,0.00000066,0.00000177,-0.00000349,-0.00000107,-0.00000069,0.,0.00000
 043,0.00000007,-0.00000241,0.00000368,0.00000034,-0.00000028,-0.000000
 07,-0.00000032,-0.00000005,-0.00000015,-0.00000024,-0.00000015,0.00000
 019,-0.00000005,-0.00000006,-0.00000016,-0.00000014,-0.00000024,0.,-0.
 00000007,0.00000003,-0.00000011,0.00000013,-0.00000005,-0.00000002,-0.
 00000366,0.00000051,0.00000005,-0.00000056,0.00000066,0.00000046,0.000
 00224,0.00000283,0.00000258,0.00000006,-0.00000008,-0.00000007,0.00000
 016,0.00000006,0.00000002,-0.00000005,-0.00000019,0.00000038,0.0000000
 3,-0.00000012,-0.00000034,0.00000071,-0.00000126,-0.00000058,-0.000000
 52,0.00000271,-0.00000416,-0.00000190,0.00000079,0.00000092,0.03360432
 ,-0.01702908,0.01419916,0.00012095,-0.00564434,-0.00055295,-0.00039736
 ,0.00060107,0.00040870,0.00016347,0.00371590,0.00019589,0.00034783,-0.
 00025892,0.00085199,-0.00010703,0.00012519,-0.00015037,0.00008301,0.00
 005132,-0.00007487,-0.00369922,0.00377279,-0.00127427,-0.00078409,0.00
 020828,-0.00057449,0.00009076,0.00011252,0.00000467,-0.00000298,0.0001
 6717,0.00007887,0.00000319,-0.00000961,-0.00000112,-0.00004304,-0.0000
 2540,0.00004683,0.00004794,-0.00003570,0.00003244,0.00001920,0.0000313
 9,-0.00000275,-0.00000122,-0.00000942,0.00001284,-0.02944130,0.0142270
 1,0.00000062,-0.00000004,-0.00000087,-0.00000003,0.00000010,0.00000022
 ,-0.00000085,-0.00000341,0.00000259,-0.00000166,-0.00000073,0.,0.00000
 115,0.00000138,-0.00000082,0.00000083,0.00000155,-0.00000228,0.0000002
 5,-0.00000067,0.00000119,-0.00000011,-0.00000050,-0.00000039,0.0000005
 1,0.00000012,0.00000116,0.00000048,0.00000032,-0.00000080,0.00000322,0
 .00001139,0.00000551,-0.00000006,-0.00000016,0.00000017,0.00000029,0.0
 0000356,-0.00000729,-0.00000038,-0.00000017,0.00000010,0.00000016,0.00
 000015,0.00000009,0.00000019,0.00000015,-0.00000015,0.00000001,0.00000
 021,0.00000025,-0.00000015,-0.00000005,0.00000024,-0.00000006,-0.00000
 002,0.00000008,-0.00000009,0.00000012,0.00000016,0.00000577,-0.0000020
 3,-0.00000130,-0.00000064,-0.00000113,-0.00000014,-0.00000501,-0.00000
 868,-0.00000810,-0.00000024,0.00000008,-0.00000021,-0.00000006,0.00000
 041,0.,0.00000019,0.00000028,-0.00000030,0.00000014,-0.00000032,0.0000
 0017,-0.00000024,0.00000087,0.00000116,0.00000289,-0.00000134,0.000006
 05,0.00000333,-0.00000145,-0.00000145,-0.17430950,0.01549990,-0.102334
 69,-0.00566630,-0.00057904,0.00044910,0.00175205,-0.00004934,-0.000197
 19,0.00175403,0.00091586,-0.00413416,-0.00006447,-0.00009437,0.0002102
 8,-0.00005809,0.00009107,-0.00009435,0.00000775,-0.00030982,0.00007579
 ,0.04447766,-0.00259774,0.01518692,-0.00005622,-0.00007438,-0.00006230
 ,0.00004711,0.00002522,0.00001690,0.00008657,0.00024271,0.00007997,0.0
 0000008,-0.00000557,0.00001517,-0.00003886,-0.00002771,0.00002575,-0.0
 0006600,0.00008089,0.00000362,-0.00000385,0.00005572,-0.00000617,0.000
 04498,0.00002985,0.00008083,0.13208258,-0.01320321,0.09068951\\-0.0000
 0038,-0.00000071,0.00000002,-0.00000055,-0.00000094,0.00000081,-0.0000
 0012,0.00000102,-0.00000113,0.00000039,-0.00000108,0.00000155,0.000000
 43,0.00000005,-0.00000139,-0.00000011,-0.00000070,0.00000068,-0.000000
 69,-0.00000096,-0.00000026,-0.00000016,-0.00000088,-0.00000033,-0.0000
 0126,-0.00000105,-0.00000160,0.,-0.00000020,-0.00000211,0.00000054,-0.
 00000030,-0.00000094,-0.00000044,-0.00000178,-0.00000033,0.00000037,0.
 00000011,0.00000056,0.00000012,-0.00000023,0.00000099,0.00000007,0.000
 00034,0.00000002,-0.00000059,-0.00000125,-0.00000105,-0.00000023,-0.00
 000056,-0.00000102,-0.00000050,-0.00000122,-0.00000196,-0.00000026,-0.
 00000017,-0.00000180,-0.00000060,-0.00000054,-0.00000197,-0.00000010,0
 .00000099,0.00000002,0.00000025,0.00000058,0.00000065,-0.00000103,0.00
 000123,0.00000021,-0.00000025,-0.00000130,0.00000018,-0.00000071,-0.00
 000137,-0.00000091,-0.00000084,-0.00000167,-0.00000102,-0.00000041,-0.
 00000113,-0.00000060,-0.00000023,-0.00000061,0.00000120,-0.00000015,-0
 .00000101,0.00000023,-0.00000101,-0.00000140,0.00000115,0.00000069,0.0
 0000178,0.00000138,0.,0.00000091,0.00000142,-0.00000019,0.00000072,-0.
 00000010,0.00000051,0.00000134,0.00000116,0.00000013,0.00000204,0.0000
 0050,0.00000035,0.00000194,-0.00000066,0.00000123,0.00000054,0.0000023
 3,0.00000020,-0.00000083,0.00000110,0.00000021,0.00000146,0.00000113,0
 .00000115,0.00000180,0.00000028,0.00000085,0.00000150,0.00000086,0.000
 00042,0.00000153,-0.00000055,0.00000039,0.00000129,0.00000017,-0.00000
 022,0.00000006,-0.00000038,0.00000180,0.00000016,-0.00000097,0.0000006
 5,-0.00000075,0.00000095,0.00000033,0.00000123,0.00000155\\\@


 ERWIN WITH HIS PSI CAN DO
 CALCULATIONS QUITE A FEW.
 BUT ONE THING HAS NOT BEEN SEEN
 JUST WHAT DOES PSI REALLY MEAN.
 -- WALTER HUCKEL, TRANS. BY FELIX BLOCH
 Job cpu time:       1 days  0 hours  6 minutes 29.8 seconds.
 Elapsed time:       0 days  0 hours 45 minutes 25.6 seconds.
 File lengths (MBytes):  RWF=   2307 Int=      0 D2E=      0 Chk=     45 Scr=      1
 Normal termination of Gaussian 16 at Tue Dec 22 21:43:36 2020.
