 Entering Gaussian System, Link 0=g16
 Input=Tem_Gly_2.gjf
 Output=Tem_Gly_2.log
 Initial command:
 /share/apps/g16/l1.exe "/backup/31479.cluster.hpc/Gau-3520.inp" -scrdir="/backup/31479.cluster.hpc/"
 Entering Link 1 = /share/apps/g16/l1.exe PID=      3521.
  
 Copyright (c) 1988,1990,1992,1993,1995,1998,2003,2009,2016,
            Gaussian, Inc.  All Rights Reserved.
  
 This is part of the Gaussian(R) 16 program.  It is based on
 the Gaussian(R) 09 system (copyright 2009, Gaussian, Inc.),
 the Gaussian(R) 03 system (copyright 2003, Gaussian, Inc.),
 the Gaussian(R) 98 system (copyright 1998, Gaussian, Inc.),
 the Gaussian(R) 94 system (copyright 1995, Gaussian, Inc.),
 the Gaussian 92(TM) system (copyright 1992, Gaussian, Inc.),
 the Gaussian 90(TM) system (copyright 1990, Gaussian, Inc.),
 the Gaussian 88(TM) system (copyright 1988, Gaussian, Inc.),
 the Gaussian 86(TM) system (copyright 1986, Carnegie Mellon
 University), and the Gaussian 82(TM) system (copyright 1983,
 Carnegie Mellon University). Gaussian is a federally registered
 trademark of Gaussian, Inc.
  
 This software contains proprietary and confidential information,
 including trade secrets, belonging to Gaussian, Inc.
  
 This software is provided under written license and may be
 used, copied, transmitted, or stored only in accord with that
 written license.
  
 The following legend is applicable only to US Government
 contracts under FAR:
  
                    RESTRICTED RIGHTS LEGEND
  
 Use, reproduction and disclosure by the US Government is
 subject to restrictions as set forth in subparagraphs (a)
 and (c) of the Commercial Computer Software - Restricted
 Rights clause in FAR 52.227-19.
  
 Gaussian, Inc.
 340 Quinnipiac St., Bldg. 40, Wallingford CT 06492
  
  
 ---------------------------------------------------------------
 Warning -- This program may not be used in any manner that
 competes with the business of Gaussian, Inc. or will provide
 assistance to any competitor of Gaussian, Inc.  The licensee
 of this program is prohibited from giving any competitor of
 Gaussian, Inc. access to this program.  By using this program,
 the user acknowledges that Gaussian, Inc. is engaged in the
 business of creating and licensing software in the field of
 computational chemistry and represents and warrants to the
 licensee that it is not a competitor of Gaussian, Inc. and that
 it will not use this program in any manner prohibited above.
 ---------------------------------------------------------------
  

 Cite this work as:
 Gaussian 16, Revision A.03,
 M. J. Frisch, G. W. Trucks, H. B. Schlegel, G. E. Scuseria, 
 M. A. Robb, J. R. Cheeseman, G. Scalmani, V. Barone, 
 G. A. Petersson, H. Nakatsuji, X. Li, M. Caricato, A. V. Marenich, 
 J. Bloino, B. G. Janesko, R. Gomperts, B. Mennucci, H. P. Hratchian, 
 J. V. Ortiz, A. F. Izmaylov, J. L. Sonnenberg, D. Williams-Young, 
 F. Ding, F. Lipparini, F. Egidi, J. Goings, B. Peng, A. Petrone, 
 T. Henderson, D. Ranasinghe, V. G. Zakrzewski, J. Gao, N. Rega, 
 G. Zheng, W. Liang, M. Hada, M. Ehara, K. Toyota, R. Fukuda, 
 J. Hasegawa, M. Ishida, T. Nakajima, Y. Honda, O. Kitao, H. Nakai, 
 T. Vreven, K. Throssell, J. A. Montgomery, Jr., J. E. Peralta, 
 F. Ogliaro, M. J. Bearpark, J. J. Heyd, E. N. Brothers, K. N. Kudin, 
 V. N. Staroverov, T. A. Keith, R. Kobayashi, J. Normand, 
 K. Raghavachari, A. P. Rendell, J. C. Burant, S. S. Iyengar, 
 J. Tomasi, M. Cossi, J. M. Millam, M. Klene, C. Adamo, R. Cammi, 
 J. W. Ochterski, R. L. Martin, K. Morokuma, O. Farkas, 
 J. B. Foresman, and D. J. Fox, Gaussian, Inc., Wallingford CT, 2016.
 
 ******************************************
 Gaussian 16:  ES64L-G16RevA.03 25-Dec-2016
                21-Dec-2020 
 ******************************************
 %mem=2GB
 %nprocshared=8
 Will use up to    8 processors via shared memory.
 %chk=Tem_Gly_2.chk
 -----------------------------------------------------
 # scrf=(solvent=water,pcm) opt freq m062x/6-311g(d,p)
 -----------------------------------------------------
 1/18=20,19=15,26=3,38=1/1,3;
 2/9=110,12=2,17=6,18=5,40=1/2;
 3/5=4,6=6,7=101,11=2,25=1,30=1,70=2201,71=1,72=1,74=-55/1,2,3;
 4//1;
 5/5=2,38=5,53=1/2;
 6/7=2,8=2,9=2,10=2,28=1/1;
 7//1,2,3,16;
 1/18=20,19=15,26=3/3(2);
 2/9=110/2;
 99//99;
 2/9=110/2;
 3/5=4,6=6,7=101,11=2,25=1,30=1,70=2205,71=1,72=1,74=-55/1,2,3;
 4/5=5,16=3,69=1/1;
 5/5=2,38=5,53=1/2;
 7//1,2,3,16;
 1/18=20,19=15,26=3/3(-5);
 2/9=110/2;
 6/7=2,8=2,9=2,10=2,19=2,28=1/1;
 99/9=1/99;
 -------------------
 Title Card Required
 -------------------
 Symbolic Z-matrix:
 Charge =  0 Multiplicity = 2
 O                    0     24.437    24.935    21.56    L 
 H                    0     24.896    25.246    22.36    L 
 C                    0     23.473    21.502    22.959   L 
 N                    0     22.919    20.992    21.662   L 
 O                    0     22.487    19.759    21.649   L 
 C                    0     23.666    23.052    22.845   L 
 C                    0     24.399    23.494    21.589   L 
 C                    0     23.697    23.016    20.359   L 
 C                    0     23.442    21.515    20.346   L 
 C                    0     22.366    21.189    19.198   L 
 C                    0     22.433    21.153    24.025   L 
 C                    0     24.766    20.92     19.945   L 
 C                    0     24.745    20.796    23.32    L 
 H                    0     24.16     23.411    23.756   L 
 H                    0     22.701    23.572    22.891   L 
 H                    0     24.262    23.33     19.473   L 
 H                    0     22.735    23.521    20.207   L 
 H                    0     22.684    21.691    18.276   L 
 H                    0     21.356    21.522    19.468   L 
 H                    0     22.323    20.108    19.017   L 
 H                    0     21.498    21.703    23.864   L 
 H                    0     22.787    21.499    25.004   L 
 H                    0     22.2      20.083    24.086   L 
 H                    0     25.401    23.052    21.65    L 
 H                    0     24.618    19.833    19.952   L 
 H                    0     24.974    21.199    18.904   L 
 H                    0     25.71     21.058    20.486   L 
 H                    0     24.947    21.006    24.377   L 
 H                    0     24.582    19.715    23.22    L 
 H                    0     25.609    21.04     22.689   L 
 O                    0     18.4291   18.03809   20.08761  H 
 O                    0     19.48408   18.89181   21.90968  H 
 N                    0     21.63541   17.32841   21.62337  H 
 C                    0     20.58962   17.17847   20.62432  H 
 C                    0     19.4737   18.13262   20.94898  H 
 H                    0     20.20702   16.15428   20.64038  H 
 H                    0     20.98681   17.41044   19.63246  H 
 H                    0     21.25899   17.14367   22.55231  H 
 H                    0     21.97239   18.29022   21.63351  H 
 H                    0     17.70283   18.65367   20.32427  H 
 
 Add virtual bond connecting atoms H39        and O5         Dist= 2.94D+00.

 GradGradGradGradGradGradGradGradGradGradGradGradGradGradGradGradGradGrad
 Berny optimization.
 Initialization pass.
                           ----------------------------
                           !    Initial Parameters    !
                           ! (Angstroms and Degrees)  !
 --------------------------                            --------------------------
 ! Name  Definition              Value          Derivative Info.                !
 --------------------------------------------------------------------------------
 ! R1    R(1,2)                  0.9733         estimate D2E/DX2                !
 ! R2    R(1,7)                  1.4418         estimate D2E/DX2                !
 ! R3    R(3,4)                  1.4997         estimate D2E/DX2                !
 ! R4    R(3,6)                  1.5661         estimate D2E/DX2                !
 ! R5    R(3,11)                 1.5296         estimate D2E/DX2                !
 ! R6    R(3,13)                 1.4989         estimate D2E/DX2                !
 ! R7    R(4,5)                  1.3066         estimate D2E/DX2                !
 ! R8    R(4,9)                  1.5096         estimate D2E/DX2                !
 ! R9    R(5,39)                 1.5564         estimate D2E/DX2                !
 ! R10   R(6,7)                  1.5199         estimate D2E/DX2                !
 ! R11   R(6,14)                 1.0967         estimate D2E/DX2                !
 ! R12   R(6,15)                 1.0972         estimate D2E/DX2                !
 ! R13   R(7,8)                  1.4947         estimate D2E/DX2                !
 ! R14   R(7,24)                 1.0969         estimate D2E/DX2                !
 ! R15   R(8,9)                  1.5226         estimate D2E/DX2                !
 ! R16   R(8,16)                 1.0967         estimate D2E/DX2                !
 ! R17   R(8,17)                 1.0971         estimate D2E/DX2                !
 ! R18   R(9,10)                 1.6068         estimate D2E/DX2                !
 ! R19   R(9,12)                 1.5059         estimate D2E/DX2                !
 ! R20   R(10,18)                1.0969         estimate D2E/DX2                !
 ! R21   R(10,19)                1.0972         estimate D2E/DX2                !
 ! R22   R(10,20)                1.0969         estimate D2E/DX2                !
 ! R23   R(11,21)                1.0967         estimate D2E/DX2                !
 ! R24   R(11,22)                1.097          estimate D2E/DX2                !
 ! R25   R(11,23)                1.0968         estimate D2E/DX2                !
 ! R26   R(12,25)                1.0971         estimate D2E/DX2                !
 ! R27   R(12,26)                1.0976         estimate D2E/DX2                !
 ! R28   R(12,27)                1.0968         estimate D2E/DX2                !
 ! R29   R(13,28)                1.0964         estimate D2E/DX2                !
 ! R30   R(13,29)                1.0978         estimate D2E/DX2                !
 ! R31   R(13,30)                1.0974         estimate D2E/DX2                !
 ! R32   R(31,35)                1.3572         estimate D2E/DX2                !
 ! R33   R(31,40)                0.981          estimate D2E/DX2                !
 ! R34   R(32,35)                1.2245         estimate D2E/DX2                !
 ! R35   R(33,34)                1.454          estimate D2E/DX2                !
 ! R36   R(33,38)                1.0192         estimate D2E/DX2                !
 ! R37   R(33,39)                1.0192         estimate D2E/DX2                !
 ! R38   R(34,35)                1.5037         estimate D2E/DX2                !
 ! R39   R(34,36)                1.0934         estimate D2E/DX2                !
 ! R40   R(34,37)                1.0933         estimate D2E/DX2                !
 ! A1    A(2,1,7)              108.3752         estimate D2E/DX2                !
 ! A2    A(4,3,6)              108.6102         estimate D2E/DX2                !
 ! A3    A(4,3,11)             105.8994         estimate D2E/DX2                !
 ! A4    A(4,3,13)             111.1978         estimate D2E/DX2                !
 ! A5    A(6,3,11)             111.1203         estimate D2E/DX2                !
 ! A6    A(6,3,13)             112.2786         estimate D2E/DX2                !
 ! A7    A(11,3,13)            107.5579         estimate D2E/DX2                !
 ! A8    A(3,4,5)              116.8501         estimate D2E/DX2                !
 ! A9    A(3,4,9)              120.5383         estimate D2E/DX2                !
 ! A10   A(5,4,9)              115.6467         estimate D2E/DX2                !
 ! A11   A(3,6,7)              114.041          estimate D2E/DX2                !
 ! A12   A(3,6,14)             108.6029         estimate D2E/DX2                !
 ! A13   A(3,6,15)             110.9549         estimate D2E/DX2                !
 ! A14   A(7,6,14)             111.9621         estimate D2E/DX2                !
 ! A15   A(7,6,15)             108.7228         estimate D2E/DX2                !
 ! A16   A(14,6,15)            101.9            estimate D2E/DX2                !
 ! A17   A(1,7,6)              108.6614         estimate D2E/DX2                !
 ! A18   A(1,7,8)              108.3876         estimate D2E/DX2                !
 ! A19   A(1,7,24)             112.3207         estimate D2E/DX2                !
 ! A20   A(6,7,8)              111.1317         estimate D2E/DX2                !
 ! A21   A(6,7,24)             106.1058         estimate D2E/DX2                !
 ! A22   A(8,7,24)             110.2389         estimate D2E/DX2                !
 ! A23   A(7,8,9)              113.6374         estimate D2E/DX2                !
 ! A24   A(7,8,16)             109.3461         estimate D2E/DX2                !
 ! A25   A(7,8,17)             112.2492         estimate D2E/DX2                !
 ! A26   A(9,8,16)             111.2006         estimate D2E/DX2                !
 ! A27   A(9,8,17)             107.8035         estimate D2E/DX2                !
 ! A28   A(16,8,17)            102.0063         estimate D2E/DX2                !
 ! A29   A(4,9,8)              113.0866         estimate D2E/DX2                !
 ! A30   A(4,9,10)             108.6952         estimate D2E/DX2                !
 ! A31   A(4,9,12)             113.5683         estimate D2E/DX2                !
 ! A32   A(8,9,10)             108.5577         estimate D2E/DX2                !
 ! A33   A(8,9,12)             104.1544         estimate D2E/DX2                !
 ! A34   A(10,9,12)            108.5623         estimate D2E/DX2                !
 ! A35   A(9,10,18)            108.2727         estimate D2E/DX2                !
 ! A36   A(9,10,19)            112.2732         estimate D2E/DX2                !
 ! A37   A(9,10,20)            110.1259         estimate D2E/DX2                !
 ! A38   A(18,10,19)           109.5606         estimate D2E/DX2                !
 ! A39   A(18,10,20)           108.8859         estimate D2E/DX2                !
 ! A40   A(19,10,20)           107.675          estimate D2E/DX2                !
 ! A41   A(3,11,21)            111.281          estimate D2E/DX2                !
 ! A42   A(3,11,22)            109.303          estimate D2E/DX2                !
 ! A43   A(3,11,23)            113.9407         estimate D2E/DX2                !
 ! A44   A(21,11,22)           104.3567         estimate D2E/DX2                !
 ! A45   A(21,11,23)           108.4407         estimate D2E/DX2                !
 ! A46   A(22,11,23)           109.0636         estimate D2E/DX2                !
 ! A47   A(9,12,25)            105.7344         estimate D2E/DX2                !
 ! A48   A(9,12,26)            108.5856         estimate D2E/DX2                !
 ! A49   A(9,12,27)            125.1473         estimate D2E/DX2                !
 ! A50   A(25,12,26)           106.4675         estimate D2E/DX2                !
 ! A51   A(25,12,27)           103.7475         estimate D2E/DX2                !
 ! A52   A(26,12,27)           105.8272         estimate D2E/DX2                !
 ! A53   A(3,13,28)            107.3563         estimate D2E/DX2                !
 ! A54   A(3,13,29)            108.413          estimate D2E/DX2                !
 ! A55   A(3,13,30)            115.1466         estimate D2E/DX2                !
 ! A56   A(28,13,29)           107.6845         estimate D2E/DX2                !
 ! A57   A(28,13,30)           111.512          estimate D2E/DX2                !
 ! A58   A(29,13,30)           106.4679         estimate D2E/DX2                !
 ! A59   A(35,31,40)           111.8998         estimate D2E/DX2                !
 ! A60   A(34,33,38)           109.9941         estimate D2E/DX2                !
 ! A61   A(34,33,39)           109.9961         estimate D2E/DX2                !
 ! A62   A(38,33,39)           106.5054         estimate D2E/DX2                !
 ! A63   A(33,34,35)           108.6607         estimate D2E/DX2                !
 ! A64   A(33,34,36)           109.7649         estimate D2E/DX2                !
 ! A65   A(33,34,37)           109.8865         estimate D2E/DX2                !
 ! A66   A(35,34,36)           109.3601         estimate D2E/DX2                !
 ! A67   A(35,34,37)           109.32           estimate D2E/DX2                !
 ! A68   A(36,34,37)           109.8272         estimate D2E/DX2                !
 ! A69   A(31,35,32)           123.2045         estimate D2E/DX2                !
 ! A70   A(31,35,34)           112.9513         estimate D2E/DX2                !
 ! A71   A(32,35,34)           123.8154         estimate D2E/DX2                !
 ! A72   L(4,5,39,20,-1)       180.0            estimate D2E/DX2                !
 ! A73   L(5,39,33,31,-1)      180.0            estimate D2E/DX2                !
 ! A74   L(4,5,39,20,-2)       180.0            estimate D2E/DX2                !
 ! A75   L(5,39,33,31,-2)      180.0            estimate D2E/DX2                !
 ! D1    D(2,1,7,6)             59.2496         estimate D2E/DX2                !
 ! D2    D(2,1,7,8)           -179.8694         estimate D2E/DX2                !
 ! D3    D(2,1,7,24)           -57.8269         estimate D2E/DX2                !
 ! D4    D(6,3,4,5)           -168.9533         estimate D2E/DX2                !
 ! D5    D(6,3,4,9)             41.5163         estimate D2E/DX2                !
 ! D6    D(11,3,4,5)           -49.5306         estimate D2E/DX2                !
 ! D7    D(11,3,4,9)           160.939          estimate D2E/DX2                !
 ! D8    D(13,3,4,5)            67.0147         estimate D2E/DX2                !
 ! D9    D(13,3,4,9)           -82.5157         estimate D2E/DX2                !
 ! D10   D(4,3,6,7)            -49.0176         estimate D2E/DX2                !
 ! D11   D(4,3,6,14)          -174.6262         estimate D2E/DX2                !
 ! D12   D(4,3,6,15)            74.1579         estimate D2E/DX2                !
 ! D13   D(11,3,6,7)          -165.1185         estimate D2E/DX2                !
 ! D14   D(11,3,6,14)           69.2729         estimate D2E/DX2                !
 ! D15   D(11,3,6,15)          -41.943          estimate D2E/DX2                !
 ! D16   D(13,3,6,7)            74.3684         estimate D2E/DX2                !
 ! D17   D(13,3,6,14)          -51.2402         estimate D2E/DX2                !
 ! D18   D(13,3,6,15)         -162.4561         estimate D2E/DX2                !
 ! D19   D(4,3,11,21)          -65.5593         estimate D2E/DX2                !
 ! D20   D(4,3,11,22)          179.7085         estimate D2E/DX2                !
 ! D21   D(4,3,11,23)           57.4217         estimate D2E/DX2                !
 ! D22   D(6,3,11,21)           52.1993         estimate D2E/DX2                !
 ! D23   D(6,3,11,22)          -62.533          estimate D2E/DX2                !
 ! D24   D(6,3,11,23)          175.1803         estimate D2E/DX2                !
 ! D25   D(13,3,11,21)         175.4629         estimate D2E/DX2                !
 ! D26   D(13,3,11,22)          60.7306         estimate D2E/DX2                !
 ! D27   D(13,3,11,23)         -61.5562         estimate D2E/DX2                !
 ! D28   D(4,3,13,28)         -164.8696         estimate D2E/DX2                !
 ! D29   D(4,3,13,29)          -48.7984         estimate D2E/DX2                !
 ! D30   D(4,3,13,30)           70.3014         estimate D2E/DX2                !
 ! D31   D(6,3,13,28)           73.2064         estimate D2E/DX2                !
 ! D32   D(6,3,13,29)         -170.7224         estimate D2E/DX2                !
 ! D33   D(6,3,13,30)          -51.6226         estimate D2E/DX2                !
 ! D34   D(11,3,13,28)         -49.3448         estimate D2E/DX2                !
 ! D35   D(11,3,13,29)          66.7264         estimate D2E/DX2                !
 ! D36   D(11,3,13,30)        -174.1738         estimate D2E/DX2                !
 ! D37   D(3,4,33,34)          152.0337         estimate D2E/DX2                !
 ! D38   D(3,4,33,38)           32.8688         estimate D2E/DX2                !
 ! D39   D(9,4,33,34)          -56.9443         estimate D2E/DX2                !
 ! D40   D(9,4,33,38)         -176.1092         estimate D2E/DX2                !
 ! D41   D(3,4,9,8)            -40.3598         estimate D2E/DX2                !
 ! D42   D(3,4,9,10)          -160.989          estimate D2E/DX2                !
 ! D43   D(3,4,9,12)            78.0624         estimate D2E/DX2                !
 ! D44   D(5,4,9,8)            169.7631         estimate D2E/DX2                !
 ! D45   D(5,4,9,10)            49.1339         estimate D2E/DX2                !
 ! D46   D(5,4,9,12)           -71.8147         estimate D2E/DX2                !
 ! D47   D(3,6,7,1)            176.3836         estimate D2E/DX2                !
 ! D48   D(3,6,7,8)             57.2082         estimate D2E/DX2                !
 ! D49   D(3,6,7,24)           -62.635          estimate D2E/DX2                !
 ! D50   D(14,6,7,1)           -59.8003         estimate D2E/DX2                !
 ! D51   D(14,6,7,8)          -178.9756         estimate D2E/DX2                !
 ! D52   D(14,6,7,24)           61.1812         estimate D2E/DX2                !
 ! D53   D(15,6,7,1)            52.004          estimate D2E/DX2                !
 ! D54   D(15,6,7,8)           -67.1714         estimate D2E/DX2                !
 ! D55   D(15,6,7,24)          172.9854         estimate D2E/DX2                !
 ! D56   D(1,7,8,9)           -173.1164         estimate D2E/DX2                !
 ! D57   D(1,7,8,16)            61.9909         estimate D2E/DX2                !
 ! D58   D(1,7,8,17)           -50.4566         estimate D2E/DX2                !
 ! D59   D(6,7,8,9)            -53.7772         estimate D2E/DX2                !
 ! D60   D(6,7,8,16)          -178.67           estimate D2E/DX2                !
 ! D61   D(6,7,8,17)            68.8826         estimate D2E/DX2                !
 ! D62   D(24,7,8,9)            63.5768         estimate D2E/DX2                !
 ! D63   D(24,7,8,16)          -61.316          estimate D2E/DX2                !
 ! D64   D(24,7,8,17)         -173.7634         estimate D2E/DX2                !
 ! D65   D(7,8,9,4)             44.5001         estimate D2E/DX2                !
 ! D66   D(7,8,9,10)           165.2075         estimate D2E/DX2                !
 ! D67   D(7,8,9,12)           -79.263          estimate D2E/DX2                !
 ! D68   D(16,8,9,4)           168.3921         estimate D2E/DX2                !
 ! D69   D(16,8,9,10)          -70.9006         estimate D2E/DX2                !
 ! D70   D(16,8,9,12)           44.6289         estimate D2E/DX2                !
 ! D71   D(17,8,9,4)           -80.575          estimate D2E/DX2                !
 ! D72   D(17,8,9,10)           40.1324         estimate D2E/DX2                !
 ! D73   D(17,8,9,12)          155.6619         estimate D2E/DX2                !
 ! D74   D(4,9,10,18)          172.2381         estimate D2E/DX2                !
 ! D75   D(4,9,10,19)           51.1569         estimate D2E/DX2                !
 ! D76   D(4,9,10,20)          -68.8122         estimate D2E/DX2                !
 ! D77   D(8,9,10,18)           48.8524         estimate D2E/DX2                !
 ! D78   D(8,9,10,19)          -72.2288         estimate D2E/DX2                !
 ! D79   D(8,9,10,20)          167.8022         estimate D2E/DX2                !
 ! D80   D(12,9,10,18)         -63.7813         estimate D2E/DX2                !
 ! D81   D(12,9,10,19)         175.1374         estimate D2E/DX2                !
 ! D82   D(12,9,10,20)          55.1684         estimate D2E/DX2                !
 ! D83   D(4,9,12,25)           55.1607         estimate D2E/DX2                !
 ! D84   D(4,9,12,26)          169.0798         estimate D2E/DX2                !
 ! D85   D(4,9,12,27)          -64.8593         estimate D2E/DX2                !
 ! D86   D(8,9,12,25)          178.6112         estimate D2E/DX2                !
 ! D87   D(8,9,12,26)          -67.4696         estimate D2E/DX2                !
 ! D88   D(8,9,12,27)           58.5913         estimate D2E/DX2                !
 ! D89   D(10,9,12,25)         -65.8625         estimate D2E/DX2                !
 ! D90   D(10,9,12,26)          48.0566         estimate D2E/DX2                !
 ! D91   D(10,9,12,27)         174.1175         estimate D2E/DX2                !
 ! D92   D(40,31,35,32)          0.7163         estimate D2E/DX2                !
 ! D93   D(40,31,35,34)        178.8279         estimate D2E/DX2                !
 ! D94   D(38,33,34,35)         58.495          estimate D2E/DX2                !
 ! D95   D(38,33,34,36)        -61.0531         estimate D2E/DX2                !
 ! D96   D(38,33,34,37)        178.0663         estimate D2E/DX2                !
 ! D97   D(39,33,34,35)        -58.5138         estimate D2E/DX2                !
 ! D98   D(39,33,34,36)       -178.0618         estimate D2E/DX2                !
 ! D99   D(39,33,34,37)         61.0575         estimate D2E/DX2                !
 ! D100  D(33,34,35,31)       -178.2567         estimate D2E/DX2                !
 ! D101  D(33,34,35,32)         -0.1585         estimate D2E/DX2                !
 ! D102  D(36,34,35,31)        -58.4562         estimate D2E/DX2                !
 ! D103  D(36,34,35,32)        119.642          estimate D2E/DX2                !
 ! D104  D(37,34,35,31)         61.8189         estimate D2E/DX2                !
 ! D105  D(37,34,35,32)       -120.0829         estimate D2E/DX2                !
 --------------------------------------------------------------------------------
 Trust Radius=3.00D-01 FncErr=1.00D-07 GrdErr=1.00D-06 EigMax=2.50D+02 EigMin=1.00D-04
 Number of steps in this run=    230 maximum allowed number of steps=    240.
 GradGradGradGradGradGradGradGradGradGradGradGradGradGradGradGradGradGrad

                          Input orientation:                          
 ---------------------------------------------------------------------
 Center     Atomic      Atomic             Coordinates (Angstroms)
 Number     Number       Type             X           Y           Z
 ---------------------------------------------------------------------
      1          8           0       24.437000   24.935000   21.560000
      2          1           0       24.896000   25.246000   22.360000
      3          6           0       23.473000   21.502000   22.959000
      4          7           0       22.919000   20.992000   21.662000
      5          8           0       22.487000   19.759000   21.649000
      6          6           0       23.666000   23.052000   22.845000
      7          6           0       24.399000   23.494000   21.589000
      8          6           0       23.697000   23.016000   20.359000
      9          6           0       23.442000   21.515000   20.346000
     10          6           0       22.366000   21.189000   19.198000
     11          6           0       22.433000   21.153000   24.025000
     12          6           0       24.766000   20.920000   19.945000
     13          6           0       24.745000   20.796000   23.320000
     14          1           0       24.160000   23.411000   23.756000
     15          1           0       22.701000   23.572000   22.891000
     16          1           0       24.262000   23.330000   19.473000
     17          1           0       22.735000   23.521000   20.207000
     18          1           0       22.684000   21.691000   18.276000
     19          1           0       21.356000   21.522000   19.468000
     20          1           0       22.323000   20.108000   19.017000
     21          1           0       21.498000   21.703000   23.864000
     22          1           0       22.787000   21.499000   25.004000
     23          1           0       22.200000   20.083000   24.086000
     24          1           0       25.401000   23.052000   21.650000
     25          1           0       24.618000   19.833000   19.952000
     26          1           0       24.974000   21.199000   18.904000
     27          1           0       25.710000   21.058000   20.486000
     28          1           0       24.947000   21.006000   24.377000
     29          1           0       24.582000   19.715000   23.220000
     30          1           0       25.609000   21.040000   22.689000
     31          8           0       18.429101   18.038091   20.087607
     32          8           0       19.484080   18.891807   21.909683
     33          7           0       21.635407   17.328411   21.623373
     34          6           0       20.589623   17.178467   20.624318
     35          6           0       19.473704   18.132622   20.948984
     36          1           0       20.207015   16.154280   20.640382
     37          1           0       20.986814   17.410443   19.632457
     38          1           0       21.258993   17.143668   22.552314
     39          1           0       21.972391   18.290219   21.633514
     40          1           0       17.702826   18.653667   20.324265
 ---------------------------------------------------------------------
                    Distance matrix (angstroms):
                    1          2          3          4          5
     1  O    0.000000
     2  H    0.973346   0.000000
     3  C    3.830403   4.049848   0.000000
     4  N    4.226343   4.742599   1.499742   0.000000
     5  O    5.531853   6.034565   2.392978   1.306553   0.000000
     6  C    2.406523   2.561593   1.566124   2.490200   3.696526
     7  C    1.441793   1.977613   2.588907   2.907874   4.196376
     8  C    2.381714   3.227151   3.017014   2.529757   3.706245
     9  C    3.763007   4.482262   2.613216   1.509607   2.386078
    10  C    4.888824   5.732224   3.933006   2.532965   2.840236
    11  C    4.939207   5.058779   1.529626   2.417827   2.755273
    12  C    4.340126   4.956148   3.330881   2.522832   3.073333
    13  C    4.508191   4.554877   1.498913   2.474198   2.994357
    14  H    2.687326   2.420276   2.179784   3.431687   4.536021
    15  H    2.577407   2.811096   2.210319   2.866071   4.015885
    16  H    2.638602   3.522468   4.014511   3.472983   4.542867
    17  H    2.593609   3.504419   3.492064   2.923478   4.036522
    18  H    4.937732   5.848934   4.752760   3.465375   3.892115
    19  H    5.051494   5.896053   4.082789   2.745452   3.023920
    20  H    5.851134   6.647934   4.336485   2.851788   2.660098
    21  H    4.938822   5.134323   2.181754   2.715431   3.108614
    22  H    5.137094   5.047636   2.156996   3.382815   3.791256
    23  H    5.909886   6.074871   2.214547   2.686823   2.475139
    24  H    2.117330   2.360670   2.798779   3.225534   4.397186
    25  H    5.352460   5.930963   3.624726   2.674693   2.725151
    26  H    4.615236   5.322427   4.334494   3.445640   3.974141
    27  H    4.219613   4.659809   3.364080   3.029359   3.664382
    28  H    4.861340   4.695582   2.104618   3.388835   3.879252
    29  H    5.479510   5.606261   2.119285   2.612214   2.618970
    30  H    4.221285   4.278673   2.202008   2.879780   3.531210
    31  O    9.264456   9.946784   6.759030   5.600311   4.676112
    32  O    7.821373   8.358674   4.881153   4.033712   3.136480
    33  N    8.106364   8.594318   4.751788   3.882137   2.575583
    34  C    8.708709   9.308198   5.697152   4.587571   3.362909
    35  C    8.442748   9.054966   5.602432   4.533707   3.495008
    36  H    9.789766  10.373188   6.681374   5.639335   4.382881
    37  H    8.499304   9.171542   5.829910   4.547520   3.439873
    38  H    8.472854   8.883275   4.905331   4.284616   3.027199
    39  H    7.087512   7.580117   3.784743   2.862953   1.556400
    40  H    9.291463   9.967188   6.953398   5.870759   5.085765
                    6          7          8          9         10
     6  C    0.000000
     7  C    1.519931   0.000000
     8  C    2.486454   1.494720   0.000000
     9  C    2.942371   2.525339   1.522562   0.000000
    10  C    4.296671   3.893969   2.541144   1.606847   0.000000
    11  C    2.553212   3.908904   4.302095   3.831992   4.827599
    12  C    3.763698   3.076183   2.389011   1.505922   2.527918
    13  C    2.545467   3.224171   3.846326   3.325575   4.775455
    14  H    1.096740   2.181719   3.451087   3.967170   5.378762
    15  H    1.097151   2.141143   2.777080   3.355198   4.407852
    16  H    3.435533   2.126763   1.096730   2.174570   2.873034
    17  H    2.836506   2.163227   1.097075   2.131480   2.567580
    18  H    4.867485   4.143429   2.668461   2.211434   1.096910
    19  H    4.368195   4.200866   2.916539   2.263256   1.097219
    20  H    5.012421   4.731803   3.485011   2.235632   1.096892
    21  H    2.749252   4.098671   4.341036   4.023780   4.773801
    22  H    2.801023   4.270924   4.970454   4.703854   5.829492
    23  H    3.536128   4.765032   4.973332   4.192945   5.014313
    24  H    2.106715   1.096854   2.138128   2.810777   4.323690
    25  H    4.431446   4.016298   3.338470   2.089817   2.734731
    26  H    4.547082   3.578669   2.655041   2.127497   2.624538
    27  H    3.703897   2.978158   2.811061   2.317816   3.585867
    28  H    2.859038   3.776691   4.663360   4.332790   5.789395
    29  H    3.480697   4.120011   4.457033   3.577636   4.822843
    30  H    2.801380   2.948935   3.604056   3.226633   4.767214
    31  O    7.756779   8.225620   7.252861   6.106130   5.120430
    32  O    5.972476   6.740879   6.096087   4.999137   4.575563
    33  N    6.194768   6.756709   6.180410   4.735292   4.617396
    34  C    6.992418   7.438274   6.618381   5.197983   4.612404
    35  C    6.735763   7.308388   6.483185   5.248947   4.557715
    36  H    8.025177   8.505534   7.703400   6.268102   5.664812
    37  H    7.023221   7.244359   6.268592   4.835749   4.045788
    38  H    6.386527   7.149428   6.725978   5.361145   5.370437
    39  H    5.197170   5.741929   5.189573   3.770498   3.806519
    40  H    7.826806   8.358656   7.413588   6.412942   5.426010
                   11         12         13         14         15
    11  C    0.000000
    12  C    4.705696   0.000000
    13  C    2.443321   3.377342   0.000000
    14  H    2.855425   4.593042   2.714875   0.000000
    15  H    2.685022   4.469479   3.473925   1.703768   0.000000
    16  H    5.367054   2.506970   4.631831   4.284980   3.765370
    17  H    4.502860   3.310409   4.599619   3.825980   2.684700
    18  H    5.779571   2.777540   5.521837   5.930209   4.983641
    19  H    4.697056   3.495430   5.181728   5.460557   4.210517
    20  H    5.117049   2.736563   4.985503   6.061559   5.210572
    21  H    1.096652   5.162507   3.414908   3.164676   2.426334
    22  H    1.097029   5.463073   2.676533   2.664278   2.961333
    23  H    1.096773   4.942955   2.751754   3.876349   3.721847
    24  H    4.249218   2.802798   2.882494   2.470668   3.016700
    25  H    4.806865   1.097052   3.505271   5.242353   5.127644
    26  H    5.716943   1.097627   4.440260   5.394205   5.166607
    27  H    4.824135   1.096750   3.005233   4.316481   4.599815
    28  H    2.542776   4.436528   1.096427   2.605578   3.719821
    29  H    2.708149   3.494497   1.097784   3.758430   4.303818
    30  H    3.447411   2.873079   1.097357   2.976530   3.861126
    31  O    6.421599   6.962904   7.612162   8.669975   7.532084
    32  O    4.275943   5.989342   5.769941   6.759898   5.763312
    33  N    4.586005   5.051441   4.957044   6.922395   6.459471
    34  C    5.546133   5.648244   6.133547   7.835782   7.104437
    35  C    5.228957   6.065134   6.364107   7.596182   6.616170
    36  H    6.434116   6.631741   7.022765   8.831373   8.142961
    37  H    5.949170   5.166906   6.259707   7.942254   7.177835
    38  H    4.429654   5.775626   5.106967   7.010289   6.596782
    39  H    3.758575   4.191788   4.100066   5.959277   5.478080
    40  H    6.505125   7.427553   7.947090   8.723768   7.467253
                   16         17         18         19         20
    16  H    0.000000
    17  H    1.704983   0.000000
    18  H    2.570839   2.660876   0.000000
    19  H    3.422532   2.538457   1.792487   0.000000
    20  H    3.788000   3.637913   1.784738   1.771408   0.000000
    21  H    5.437620   4.267194   5.712485   4.402016   5.168951
    22  H    6.010004   5.205996   6.731527   5.718005   6.163955
    23  H    6.006215   5.210826   6.047811   4.910090   5.070554
    24  H    2.472637   3.067534   4.540736   4.843970   5.007385
    25  H    3.547561   4.148742   3.162514   3.705080   2.493366
    26  H    2.317729   3.478881   2.424984   3.675915   2.868946
    27  H    2.878343   3.872316   3.800193   4.495435   3.812116
    28  H    5.469864   5.348558   6.543133   6.104082   6.035013
    29  H    5.216381   5.193767   5.652443   5.267811   4.787770
    30  H    4.171470   4.536029   5.334229   5.356788   5.014978
    31  O    7.899668   6.972612   5.893202   4.592197   4.537970
    32  O    6.961573   5.907371   5.592729   4.047692   4.231572
    33  N    6.895083   6.446966   5.597914   4.723335   3.871961
    34  C    7.256255   6.708540   5.501269   4.559680   3.764336
    35  C    7.219352   6.342019   5.487522   4.150209   3.969026
    36  H    8.324461   7.800455   6.510071   5.613116   4.769137
    37  H    6.767084   6.381627   4.800373   4.131373   3.072620
    38  H    7.534648   6.953377   6.402791   5.356509   4.734745
    39  H    5.942182   5.475179   4.831625   3.938756   3.205215
    40  H    8.100340   7.001961   6.183274   4.722945   5.016975
                   21         22         23         24         25
    21  H    0.000000
    22  H    1.732841   0.000000
    23  H    1.779463   1.786715   0.000000
    24  H    4.685617   4.527043   4.999546   0.000000
    25  H    5.341820   5.625906   4.795746   3.722668   0.000000
    26  H    6.077680   6.487139   5.982780   3.340128   1.758123
    27  H    5.437633   5.399142   5.121594   2.329466   1.725759
    28  H    3.555922   2.302559   2.912494   3.439297   4.589640
    29  H    3.725310   3.096343   2.561114   3.777728   3.270328
    30  H    4.326721   3.678803   3.806408   2.273968   3.151206
    31  O    6.091867   7.425638   5.864169   8.728559   6.445352
    32  O    3.972157   5.223173   3.678521   7.237719   5.574540
    33  N    4.916942   5.490775   3.737787   6.851268   4.238197
    34  C    5.638447   6.532770   4.797173   7.661576   4.870972
    35  C    5.034153   6.225238   4.591028   7.734633   5.508997
    36  H    6.545735   7.366377   5.592773   8.693408   5.784777
    37  H    6.049241   6.986447   5.333707   7.441954   4.376803
    38  H    4.750279   5.226326   3.446354   7.271779   5.027630
    39  H    4.104533   4.724409   3.046401   5.867725   3.493839
    40  H    6.019261   7.472929   6.034751   8.964641   7.024888
                   26         27         28         29         30
    26  H    0.000000
    27  H    1.750514   0.000000
    28  H    5.476468   3.965445   0.000000
    29  H    4.580805   3.248198   1.771597   0.000000
    30  H    3.841189   2.205387   1.813489   1.758498   0.000000
    31  O    7.363965   7.892405   8.348077   7.105074   8.205465
    32  O    6.670569   6.743986   6.356175   5.327604   6.537332
    33  N    5.789875   5.639660   5.663371   4.114296   5.540839
    34  C    6.192490   6.425586   6.907920   5.395427   6.660967
    35  C    6.621019   6.903881   7.068562   5.810002   7.008735
    36  H    7.154605   7.372459   7.743963   6.202713   7.566276
    37  H    5.548105   6.028407   7.149951   5.577348   6.624254
    38  H    6.599786   6.277189   5.643446   4.254401   5.841459
    39  H    4.992085   4.790316   4.873447   3.370015   4.679773
    40  H    7.833636   8.361927   8.627641   7.538882   8.590352
                   31         32         33         34         35
    31  O    0.000000
    32  O    2.271954   0.000000
    33  N    3.625275   2.674769   0.000000
    34  C    2.386392   2.410378   1.454049   0.000000
    35  C    1.357240   1.224505   2.403022   1.503694   0.000000
    36  H    2.648638   3.102872   2.094077   1.093438   2.132327
    37  H    2.672638   3.104578   2.095507   1.093326   2.131733
    38  H    3.857857   2.572796   1.019189   2.041185   2.595372
    39  H    3.874054   2.574853   1.019183   2.041204   2.595545
    40  H    0.981029   2.396482   4.348469   3.255741   1.948787
                   36         37         38         39         40
    36  H    0.000000
    37  H    1.789398   0.000000
    38  H    2.396044   2.944625   0.000000
    39  H    2.943654   2.397832   1.633311   0.000000
    40  H    3.552158   3.578936   4.459890   4.480559   0.000000
 Stoichiometry    C11H23N2O4(2)
 Framework group  C1[X(C11H23N2O4)]
 Deg. of freedom   114
 Full point group                 C1      NOp   1
 Largest Abelian subgroup         C1      NOp   1
 Largest concise Abelian subgroup C1      NOp   1
                         Standard orientation:                         
 ---------------------------------------------------------------------
 Center     Atomic      Atomic             Coordinates (Angstroms)
 Number     Number       Type             X           Y           Z
 ---------------------------------------------------------------------
      1          8           0        4.457920   -0.666376   -1.199314
      2          1           0        5.089917    0.073391   -1.172386
      3          6           0        1.426205    1.352040   -0.013277
      4          7           0        0.519782    0.161842    0.091848
      5          8           0       -0.689888    0.378684    0.535425
      6          6           0        2.704667    0.937179   -0.817124
      7          6           0        3.350740   -0.350093   -0.331625
      8          6           0        2.381560   -1.487362   -0.370295
      9          6           0        1.083935   -1.209245    0.376039
     10          6           0       -0.001304   -2.312505   -0.056430
     11          6           0        0.628211    2.421779   -0.760687
     12          6           0        1.437822   -1.426563    1.823568
     13          6           0        1.759735    1.900616    1.341184
     14          1           0        3.409519    1.777410   -0.811391
     15          1           0        2.480523    0.837200   -1.886472
     16          1           0        2.869869   -2.393852    0.007392
     17          1           0        2.122877   -1.777986   -1.396061
     18          1           0        0.464952   -3.302372    0.020906
     19          1           0       -0.366965   -2.157574   -1.079259
     20          1           0       -0.866991   -2.274285    0.616099
     21          1           0        0.419714    2.114440   -1.792539
     22          1           0        1.241664    3.325294   -0.864655
     23          1           0       -0.320897    2.686657   -0.279082
     24          1           0        3.671136   -0.159509    0.699933
     25          1           0        0.523824   -1.207550    2.389397
     26          1           0        1.649931   -2.492716    1.975600
     27          1           0        2.219099   -0.885155    2.370693
     28          1           0        2.182594    2.901409    1.193682
     29          1           0        0.826992    2.013071    1.909054
     30          1           0        2.420408    1.270319    1.949813
     31          8           0       -4.801356   -0.974175   -1.234213
     32          8           0       -3.246152    0.681910   -1.256522
     33          7           0       -3.074486    0.806140    1.409840
     34          6           0       -3.988590   -0.185447    0.866307
     35          6           0       -3.947287   -0.106253   -0.634732
     36          1           0       -5.005305    0.019965    1.212289
     37          1           0       -3.683739   -1.186114    1.184259
     38          1           0       -3.338332    1.736609    1.088343
     39          1           0       -2.130878    0.636992    1.063826
     40          1           0       -4.775337   -0.896728   -2.211834
 ---------------------------------------------------------------------
 Rotational constants (GHZ):           0.7708572           0.2306955           0.2150393
 Standard basis: 6-311G(d,p) (5D, 7F)
 There are   461 symmetry adapted cartesian basis functions of A   symmetry.
 There are   444 symmetry adapted basis functions of A   symmetry.
   444 basis functions,   728 primitive gaussians,   461 cartesian basis functions
    68 alpha electrons       67 beta electrons
       nuclear repulsion energy      1368.1697998640 Hartrees.
 NAtoms=   40 NActive=   40 NUniq=   40 SFac= 1.00D+00 NAtFMM=   60 NAOKFM=F Big=F
 Integral buffers will be    131072 words long.
 Raffenetti 2 integral format.
 Two-electron integral symmetry is turned on.
 ------------------------------------------------------------------------------
 Polarizable Continuum Model (PCM)
 =================================
 Model                : PCM.
 Atomic radii         : UFF (Universal Force Field).
 Polarization charges : Total charges.
 Charge compensation  : None.
 Solution method      : On-the-fly selection.
 Cavity type          : Scaled VdW (van der Waals Surface) (Alpha=1.100).
 Cavity algorithm     : GePol (No added spheres)
                        Default sphere list used, NSphG=   40.
                        Lebedev-Laikov grids with approx.  5.0 points / Ang**2.
                        Smoothing algorithm: York/Karplus (Gamma=1.0000).
                        Polarization charges: spherical gaussians, with
                                              point-specific exponents (IZeta= 3).
                        Self-potential: point-specific (ISelfS= 7).
                        Self-field    : sphere-specific E.n sum rule (ISelfD= 2).
 1st derivatives      : Analytical E(r).r(x)/FMM algorithm (CHGder, D1EAlg=3).
                        Cavity 1st derivative terms included.
 Solvent              : Water, Eps=  78.355300 Eps(inf)=   1.777849
 ------------------------------------------------------------------------------
 One-electron integrals computed using PRISM.
 NBasis=   444 RedAO= T EigKep=  9.22D-04  NBF=   444
 NBsUse=   444 1.00D-06 EigRej= -1.00D+00 NBFU=   444
 ExpMin= 1.03D-01 ExpMax= 8.59D+03 ExpMxC= 1.30D+03 IAcc=3 IRadAn=         5 AccDes= 0.00D+00
 Harris functional with IExCor= 1009 and IRadAn=       5 diagonalized for initial guess.
 HarFok:  IExCor= 1009 AccDes= 0.00D+00 IRadAn=         5 IDoV= 1 UseB2=F ITyADJ=14
 ICtDFT=  3500011 ScaDFX=  1.000000  1.000000  1.000000  1.000000
 FoFCou: FMM=F IPFlag=           0 FMFlag=      100000 FMFlg1=           0
         NFxFlg=           0 DoJE=T BraDBF=F KetDBF=T FulRan=T
         wScrn=  0.000000 ICntrl=       500 IOpCl=  0 I1Cent=   200000004 NGrid=           0
         NMat0=    1 NMatS0=      1 NMatT0=    0 NMatD0=    1 NMtDS0=    0 NMtDT0=    0
 Petite list used in FoFCou.
 Initial guess <Sx>= 0.0000 <Sy>= 0.0000 <Sz>= 0.5000 <S**2>= 0.7500 S= 0.5000
 Requested convergence on RMS density matrix=1.00D-08 within 128 cycles.
 Requested convergence on MAX density matrix=1.00D-06.
 Requested convergence on             energy=1.00D-06.
 No special actions if energy rises.
 Inv3:  Mode=1 IEnd=    20798067.
 Iteration    1 A*A^-1 deviation from unit magnitude is 6.00D-15 for   2629.
 Iteration    1 A*A^-1 deviation from orthogonality  is 3.30D-15 for   2615    286.
 Iteration    1 A^-1*A deviation from unit magnitude is 5.77D-15 for   2629.
 Iteration    1 A^-1*A deviation from orthogonality  is 2.11D-15 for   1622    510.
 Error on total polarization charges =  0.01141
 SCF Done:  E(UM062X) =  -843.229656590     A.U. after   17 cycles
            NFock= 17  Conv=0.61D-08     -V/T= 2.0039
 <Sx>= 0.0000 <Sy>= 0.0000 <Sz>= 0.5000 <S**2>= 0.7549 S= 0.5025
 <L.S>= 0.000000000000E+00
 Annihilation of the first spin contaminant:
 S**2 before annihilation     0.7549,   after     0.7500

 **********************************************************************

            Population analysis using the SCF density.

 **********************************************************************

 Orbital symmetries:
 Alpha Orbitals:
       Occupied  (A) (A) (A) (A) (A) (A) (A) (A) (A) (A) (A) (A)
                 (A) (A) (A) (A) (A) (A) (A) (A) (A) (A) (A) (A)
                 (A) (A) (A) (A) (A) (A) (A) (A) (A) (A) (A) (A)
                 (A) (A) (A) (A) (A) (A) (A) (A) (A) (A) (A) (A)
                 (A) (A) (A) (A) (A) (A) (A) (A) (A) (A) (A) (A)
                 (A) (A) (A) (A) (A) (A) (A) (A)
       Virtual   (A) (A) (A) (A) (A) (A) (A) (A) (A) (A) (A) (A)
                 (A) (A) (A) (A) (A) (A) (A) (A) (A) (A) (A) (A)
                 (A) (A) (A) (A) (A) (A) (A) (A) (A) (A) (A) (A)
                 (A) (A) (A) (A) (A) (A) (A) (A) (A) (A) (A) (A)
                 (A) (A) (A) (A) (A) (A) (A) (A) (A) (A) (A) (A)
                 (A) (A) (A) (A) (A) (A) (A) (A) (A) (A) (A) (A)
                 (A) (A) (A) (A) (A) (A) (A) (A) (A) (A) (A) (A)
                 (A) (A) (A) (A) (A) (A) (A) (A) (A) (A) (A) (A)
                 (A) (A) (A) (A) (A) (A) (A) (A) (A) (A) (A) (A)
                 (A) (A) (A) (A) (A) (A) (A) (A) (A) (A) (A) (A)
                 (A) (A) (A) (A) (A) (A) (A) (A) (A) (A) (A) (A)
                 (A) (A) (A) (A) (A) (A) (A) (A) (A) (A) (A) (A)
                 (A) (A) (A) (A) (A) (A) (A) (A) (A) (A) (A) (A)
                 (A) (A) (A) (A) (A) (A) (A) (A) (A) (A) (A) (A)
                 (A) (A) (A) (A) (A) (A) (A) (A) (A) (A) (A) (A)
                 (A) (A) (A) (A) (A) (A) (A) (A) (A) (A) (A) (A)
                 (A) (A) (A) (A) (A) (A) (A) (A) (A) (A) (A) (A)
                 (A) (A) (A) (A) (A) (A) (A) (A) (A) (A) (A) (A)
                 (A) (A) (A) (A) (A) (A) (A) (A) (A) (A) (A) (A)
                 (A) (A) (A) (A) (A) (A) (A) (A) (A) (A) (A) (A)
                 (A) (A) (A) (A) (A) (A) (A) (A) (A) (A) (A) (A)
                 (A) (A) (A) (A) (A) (A) (A) (A) (A) (A) (A) (A)
                 (A) (A) (A) (A) (A) (A) (A) (A) (A) (A) (A) (A)
                 (A) (A) (A) (A) (A) (A) (A) (A) (A) (A) (A) (A)
                 (A) (A) (A) (A) (A) (A) (A) (A) (A) (A) (A) (A)
                 (A) (A) (A) (A) (A) (A) (A) (A) (A) (A) (A) (A)
                 (A) (A) (A) (A) (A) (A) (A) (A) (A) (A) (A) (A)
                 (A) (A) (A) (A) (A) (A) (A) (A) (A) (A) (A) (A)
                 (A) (A) (A) (A) (A) (A) (A) (A) (A) (A) (A) (A)
                 (A) (A) (A) (A) (A) (A) (A) (A) (A) (A) (A) (A)
                 (A) (A) (A) (A) (A) (A) (A) (A) (A) (A) (A) (A)
                 (A) (A) (A) (A)
 Beta  Orbitals:
       Occupied  (A) (A) (A) (A) (A) (A) (A) (A) (A) (A) (A) (A)
                 (A) (A) (A) (A) (A) (A) (A) (A) (A) (A) (A) (A)
                 (A) (A) (A) (A) (A) (A) (A) (A) (A) (A) (A) (A)
                 (A) (A) (A) (A) (A) (A) (A) (A) (A) (A) (A) (A)
                 (A) (A) (A) (A) (A) (A) (A) (A) (A) (A) (A) (A)
                 (A) (A) (A) (A) (A) (A) (A)
       Virtual   (A) (A) (A) (A) (A) (A) (A) (A) (A) (A) (A) (A)
                 (A) (A) (A) (A) (A) (A) (A) (A) (A) (A) (A) (A)
                 (A) (A) (A) (A) (A) (A) (A) (A) (A) (A) (A) (A)
                 (A) (A) (A) (A) (A) (A) (A) (A) (A) (A) (A) (A)
                 (A) (A) (A) (A) (A) (A) (A) (A) (A) (A) (A) (A)
                 (A) (A) (A) (A) (A) (A) (A) (A) (A) (A) (A) (A)
                 (A) (A) (A) (A) (A) (A) (A) (A) (A) (A) (A) (A)
                 (A) (A) (A) (A) (A) (A) (A) (A) (A) (A) (A) (A)
                 (A) (A) (A) (A) (A) (A) (A) (A) (A) (A) (A) (A)
                 (A) (A) (A) (A) (A) (A) (A) (A) (A) (A) (A) (A)
                 (A) (A) (A) (A) (A) (A) (A) (A) (A) (A) (A) (A)
                 (A) (A) (A) (A) (A) (A) (A) (A) (A) (A) (A) (A)
                 (A) (A) (A) (A) (A) (A) (A) (A) (A) (A) (A) (A)
                 (A) (A) (A) (A) (A) (A) (A) (A) (A) (A) (A) (A)
                 (A) (A) (A) (A) (A) (A) (A) (A) (A) (A) (A) (A)
                 (A) (A) (A) (A) (A) (A) (A) (A) (A) (A) (A) (A)
                 (A) (A) (A) (A) (A) (A) (A) (A) (A) (A) (A) (A)
                 (A) (A) (A) (A) (A) (A) (A) (A) (A) (A) (A) (A)
                 (A) (A) (A) (A) (A) (A) (A) (A) (A) (A) (A) (A)
                 (A) (A) (A) (A) (A) (A) (A) (A) (A) (A) (A) (A)
                 (A) (A) (A) (A) (A) (A) (A) (A) (A) (A) (A) (A)
                 (A) (A) (A) (A) (A) (A) (A) (A) (A) (A) (A) (A)
                 (A) (A) (A) (A) (A) (A) (A) (A) (A) (A) (A) (A)
                 (A) (A) (A) (A) (A) (A) (A) (A) (A) (A) (A) (A)
                 (A) (A) (A) (A) (A) (A) (A) (A) (A) (A) (A) (A)
                 (A) (A) (A) (A) (A) (A) (A) (A) (A) (A) (A) (A)
                 (A) (A) (A) (A) (A) (A) (A) (A) (A) (A) (A) (A)
                 (A) (A) (A) (A) (A) (A) (A) (A) (A) (A) (A) (A)
                 (A) (A) (A) (A) (A) (A) (A) (A) (A) (A) (A) (A)
                 (A) (A) (A) (A) (A) (A) (A) (A) (A) (A) (A) (A)
                 (A) (A) (A) (A) (A) (A) (A) (A) (A) (A) (A) (A)
                 (A) (A) (A) (A) (A)
 The electronic state is 2-A.
 Alpha  occ. eigenvalues --  -19.66474 -19.64048 -19.62051 -19.61369 -14.85424
 Alpha  occ. eigenvalues --  -14.69774 -10.67617 -10.60273 -10.59847 -10.59525
 Alpha  occ. eigenvalues --  -10.57081 -10.54217 -10.53884 -10.53819 -10.53215
 Alpha  occ. eigenvalues --  -10.53141 -10.52930  -1.22555  -1.22420  -1.14212
 Alpha  occ. eigenvalues --   -1.13445  -0.99158  -0.97654  -0.93014  -0.86926
 Alpha  occ. eigenvalues --   -0.83217  -0.80477  -0.79052  -0.78479  -0.78139
 Alpha  occ. eigenvalues --   -0.69607  -0.68863  -0.68345  -0.63090  -0.60298
 Alpha  occ. eigenvalues --   -0.58604  -0.58309  -0.57296  -0.57130  -0.56374
 Alpha  occ. eigenvalues --   -0.55609  -0.53025  -0.52095  -0.50894  -0.50181
 Alpha  occ. eigenvalues --   -0.49931  -0.48302  -0.47908  -0.47429  -0.46858
 Alpha  occ. eigenvalues --   -0.46061  -0.45941  -0.44784  -0.43946  -0.43441
 Alpha  occ. eigenvalues --   -0.42980  -0.42578  -0.41763  -0.40811  -0.40108
 Alpha  occ. eigenvalues --   -0.39578  -0.39144  -0.38006  -0.36050  -0.35387
 Alpha  occ. eigenvalues --   -0.34565  -0.30425  -0.28761
 Alpha virt. eigenvalues --    0.04816   0.06363   0.07331   0.08252   0.08858
 Alpha virt. eigenvalues --    0.09141   0.09537   0.10827   0.11059   0.12111
 Alpha virt. eigenvalues --    0.12737   0.13838   0.14850   0.15129   0.15876
 Alpha virt. eigenvalues --    0.16883   0.17248   0.17399   0.17577   0.18481
 Alpha virt. eigenvalues --    0.19420   0.20024   0.20353   0.20953   0.21652
 Alpha virt. eigenvalues --    0.22473   0.22939   0.23744   0.24311   0.25630
 Alpha virt. eigenvalues --    0.27350   0.27807   0.28442   0.28741   0.29352
 Alpha virt. eigenvalues --    0.29829   0.30430   0.30884   0.32187   0.33397
 Alpha virt. eigenvalues --    0.34162   0.34901   0.36237   0.37343   0.38092
 Alpha virt. eigenvalues --    0.39956   0.40786   0.42253   0.42669   0.43282
 Alpha virt. eigenvalues --    0.43925   0.44367   0.45322   0.47189   0.48748
 Alpha virt. eigenvalues --    0.49433   0.49749   0.51015   0.51245   0.51568
 Alpha virt. eigenvalues --    0.52617   0.52954   0.53367   0.54076   0.54735
 Alpha virt. eigenvalues --    0.57295   0.58366   0.59320   0.59944   0.60538
 Alpha virt. eigenvalues --    0.61124   0.62087   0.62291   0.62472   0.62966
 Alpha virt. eigenvalues --    0.63745   0.63868   0.64594   0.64692   0.65108
 Alpha virt. eigenvalues --    0.65654   0.66018   0.66771   0.67204   0.67418
 Alpha virt. eigenvalues --    0.67809   0.68263   0.68718   0.69261   0.69772
 Alpha virt. eigenvalues --    0.70243   0.71295   0.72797   0.73564   0.73959
 Alpha virt. eigenvalues --    0.75823   0.76230   0.76983   0.78931   0.79222
 Alpha virt. eigenvalues --    0.81940   0.82720   0.84469   0.86682   0.87364
 Alpha virt. eigenvalues --    0.88323   0.92070   0.92813   0.94345   0.94755
 Alpha virt. eigenvalues --    0.96103   0.98516   0.98739   0.99437   1.00837
 Alpha virt. eigenvalues --    1.01790   1.02881   1.06073   1.08720   1.09077
 Alpha virt. eigenvalues --    1.10071   1.11343   1.11723   1.13431   1.15287
 Alpha virt. eigenvalues --    1.17340   1.18421   1.20052   1.24276   1.24948
 Alpha virt. eigenvalues --    1.25932   1.26765   1.28602   1.30579   1.31450
 Alpha virt. eigenvalues --    1.34265   1.37208   1.37422   1.38791   1.39117
 Alpha virt. eigenvalues --    1.39959   1.41136   1.42171   1.44799   1.45451
 Alpha virt. eigenvalues --    1.46292   1.46726   1.47519   1.49177   1.49892
 Alpha virt. eigenvalues --    1.50148   1.50613   1.51320   1.51762   1.52037
 Alpha virt. eigenvalues --    1.52337   1.53043   1.53713   1.54354   1.54685
 Alpha virt. eigenvalues --    1.56115   1.56733   1.57578   1.57976   1.58138
 Alpha virt. eigenvalues --    1.59544   1.60860   1.62507   1.63360   1.64138
 Alpha virt. eigenvalues --    1.64846   1.65386   1.65832   1.66312   1.67882
 Alpha virt. eigenvalues --    1.68949   1.70779   1.71052   1.71342   1.72485
 Alpha virt. eigenvalues --    1.73701   1.74401   1.75195   1.75383   1.77058
 Alpha virt. eigenvalues --    1.77318   1.77894   1.78290   1.79087   1.79975
 Alpha virt. eigenvalues --    1.80615   1.81526   1.83832   1.84922   1.85859
 Alpha virt. eigenvalues --    1.86240   1.86514   1.88414   1.89359   1.90312
 Alpha virt. eigenvalues --    1.91369   1.91657   1.92787   1.94339   1.95602
 Alpha virt. eigenvalues --    1.96118   1.97432   1.98705   2.02278   2.03282
 Alpha virt. eigenvalues --    2.04183   2.05677   2.07168   2.08037   2.09492
 Alpha virt. eigenvalues --    2.11663   2.12197   2.13093   2.15358   2.16121
 Alpha virt. eigenvalues --    2.17986   2.18901   2.21176   2.22318   2.22649
 Alpha virt. eigenvalues --    2.23866   2.24299   2.25669   2.26396   2.28184
 Alpha virt. eigenvalues --    2.31950   2.34213   2.35059   2.37355   2.39131
 Alpha virt. eigenvalues --    2.39352   2.40374   2.43347   2.44582   2.45860
 Alpha virt. eigenvalues --    2.46178   2.46766   2.47119   2.47585   2.48490
 Alpha virt. eigenvalues --    2.49398   2.50286   2.51237   2.52582   2.53106
 Alpha virt. eigenvalues --    2.54527   2.55529   2.56122   2.56322   2.57876
 Alpha virt. eigenvalues --    2.58615   2.58796   2.59497   2.60017   2.61536
 Alpha virt. eigenvalues --    2.63615   2.64954   2.66632   2.67123   2.67557
 Alpha virt. eigenvalues --    2.68305   2.69910   2.70763   2.71760   2.72041
 Alpha virt. eigenvalues --    2.74708   2.76247   2.76873   2.78198   2.79185
 Alpha virt. eigenvalues --    2.80520   2.84252   2.85126   2.85911   2.86997
 Alpha virt. eigenvalues --    2.87698   2.88494   2.91616   2.92886   2.94001
 Alpha virt. eigenvalues --    2.94715   2.95622   2.96403   2.97910   2.99408
 Alpha virt. eigenvalues --    3.02558   3.03554   3.05456   3.07835   3.11367
 Alpha virt. eigenvalues --    3.12648   3.14286   3.15658   3.18728   3.19967
 Alpha virt. eigenvalues --    3.20852   3.23728   3.24481   3.25220   3.26368
 Alpha virt. eigenvalues --    3.30888   3.31966   3.38634   3.40198   3.40940
 Alpha virt. eigenvalues --    3.42690   3.44435   3.53758   3.54802   3.55826
 Alpha virt. eigenvalues --    3.67556   3.68534   3.74467   3.77463   3.77901
 Alpha virt. eigenvalues --    3.79545   3.80762   3.81036   3.81383   3.82162
 Alpha virt. eigenvalues --    3.83877   3.85408   3.86046   3.87145   3.88066
 Alpha virt. eigenvalues --    3.89234   3.90261   3.96017   3.96437   4.03536
 Alpha virt. eigenvalues --    4.08188   4.18241   4.20031   4.24061   4.30679
 Alpha virt. eigenvalues --    4.34566   4.35246   4.40294   4.64181   4.88041
 Alpha virt. eigenvalues --    4.88616   4.91414   4.98231   5.02241   5.03576
 Alpha virt. eigenvalues --    5.07966   5.17078   5.18325   5.31433   5.37581
 Alpha virt. eigenvalues --    5.64112   5.71268   5.82690   5.95129  23.77823
 Alpha virt. eigenvalues --   23.79143  23.87339  23.88192  23.91463  23.94772
 Alpha virt. eigenvalues --   23.97697  23.99211  24.02293  24.03641  24.06900
 Alpha virt. eigenvalues --   35.52322  35.72551  49.95340  49.97803  50.03331
 Alpha virt. eigenvalues --   50.08335
  Beta  occ. eigenvalues --  -19.66474 -19.63015 -19.62050 -19.61365 -14.84586
  Beta  occ. eigenvalues --  -14.69774 -10.67617 -10.60296 -10.59869 -10.59526
  Beta  occ. eigenvalues --  -10.57080 -10.54215 -10.53882 -10.53809 -10.53182
  Beta  occ. eigenvalues --  -10.53103 -10.52919  -1.22526  -1.19441  -1.14207
  Beta  occ. eigenvalues --   -1.13438  -0.98302  -0.97163  -0.92824  -0.86115
  Beta  occ. eigenvalues --   -0.81942  -0.80347  -0.78887  -0.78434  -0.78025
  Beta  occ. eigenvalues --   -0.69355  -0.68426  -0.68214  -0.62191  -0.59999
  Beta  occ. eigenvalues --   -0.58307  -0.58210  -0.57135  -0.56593  -0.55958
  Beta  occ. eigenvalues --   -0.53022  -0.52184  -0.51853  -0.50703  -0.50110
  Beta  occ. eigenvalues --   -0.49715  -0.48088  -0.47319  -0.46895  -0.46665
  Beta  occ. eigenvalues --   -0.45772  -0.45703  -0.44071  -0.43561  -0.42994
  Beta  occ. eigenvalues --   -0.42579  -0.41823  -0.41140  -0.40100  -0.39703
  Beta  occ. eigenvalues --   -0.39501  -0.37855  -0.37470  -0.35996  -0.34667
  Beta  occ. eigenvalues --   -0.33811  -0.30216
  Beta virt. eigenvalues --   -0.03757   0.04820   0.06392   0.07392   0.08257
  Beta virt. eigenvalues --    0.08925   0.09163   0.09548   0.10914   0.11109
  Beta virt. eigenvalues --    0.12104   0.12778   0.13839   0.14911   0.15123
  Beta virt. eigenvalues --    0.15884   0.16926   0.17306   0.17491   0.17767
  Beta virt. eigenvalues --    0.18551   0.19712   0.20227   0.20472   0.21110
  Beta virt. eigenvalues --    0.21650   0.22681   0.23046   0.23830   0.24714
  Beta virt. eigenvalues --    0.25822   0.27622   0.27933   0.28581   0.28788
  Beta virt. eigenvalues --    0.29506   0.30092   0.30478   0.31100   0.32453
  Beta virt. eigenvalues --    0.33453   0.34436   0.35039   0.36377   0.37389
  Beta virt. eigenvalues --    0.38239   0.40162   0.40926   0.42486   0.42695
  Beta virt. eigenvalues --    0.43439   0.44152   0.44552   0.45445   0.47326
  Beta virt. eigenvalues --    0.48890   0.49514   0.49809   0.51072   0.51268
  Beta virt. eigenvalues --    0.51614   0.52804   0.52992   0.53433   0.54300
  Beta virt. eigenvalues --    0.54793   0.57470   0.58421   0.59396   0.60021
  Beta virt. eigenvalues --    0.60798   0.61226   0.62165   0.62384   0.62538
  Beta virt. eigenvalues --    0.63054   0.63819   0.63989   0.64655   0.64768
  Beta virt. eigenvalues --    0.65146   0.65725   0.66140   0.66836   0.67289
  Beta virt. eigenvalues --    0.67460   0.67843   0.68301   0.68751   0.69304
  Beta virt. eigenvalues --    0.69860   0.70379   0.71354   0.72942   0.73696
  Beta virt. eigenvalues --    0.74022   0.75875   0.76319   0.77134   0.79008
  Beta virt. eigenvalues --    0.79277   0.82082   0.83147   0.85505   0.86924
  Beta virt. eigenvalues --    0.87409   0.88403   0.92544   0.93498   0.94507
  Beta virt. eigenvalues --    0.94832   0.96246   0.98577   0.98941   0.99657
  Beta virt. eigenvalues --    1.01113   1.02161   1.03017   1.06227   1.08808
  Beta virt. eigenvalues --    1.09398   1.10733   1.11495   1.11825   1.13571
  Beta virt. eigenvalues --    1.15318   1.17688   1.18568   1.20194   1.24416
  Beta virt. eigenvalues --    1.24976   1.25997   1.26835   1.28628   1.30702
  Beta virt. eigenvalues --    1.31709   1.34542   1.37320   1.37909   1.38858
  Beta virt. eigenvalues --    1.39479   1.40050   1.41233   1.42229   1.44806
  Beta virt. eigenvalues --    1.45517   1.46314   1.46795   1.47601   1.49218
  Beta virt. eigenvalues --    1.49959   1.50209   1.50760   1.51343   1.51788
  Beta virt. eigenvalues --    1.52085   1.52383   1.53070   1.53759   1.54405
  Beta virt. eigenvalues --    1.54719   1.56202   1.56768   1.57600   1.58027
  Beta virt. eigenvalues --    1.58170   1.59579   1.60925   1.62527   1.63517
  Beta virt. eigenvalues --    1.64184   1.64925   1.65403   1.65888   1.66388
  Beta virt. eigenvalues --    1.68056   1.69061   1.70830   1.71197   1.71430
  Beta virt. eigenvalues --    1.72548   1.73718   1.74449   1.75239   1.75446
  Beta virt. eigenvalues --    1.77154   1.77383   1.77916   1.78364   1.79143
  Beta virt. eigenvalues --    1.80033   1.80799   1.81613   1.84035   1.85047
  Beta virt. eigenvalues --    1.85972   1.86428   1.86903   1.88520   1.89476
  Beta virt. eigenvalues --    1.90444   1.91392   1.91797   1.92851   1.94393
  Beta virt. eigenvalues --    1.95630   1.96218   1.97469   1.98742   2.02302
  Beta virt. eigenvalues --    2.03478   2.04218   2.05701   2.07336   2.08702
  Beta virt. eigenvalues --    2.09526   2.11787   2.12407   2.13155   2.15459
  Beta virt. eigenvalues --    2.16164   2.18051   2.18976   2.21346   2.22452
  Beta virt. eigenvalues --    2.22939   2.23938   2.24454   2.26047   2.26819
  Beta virt. eigenvalues --    2.28357   2.32105   2.34431   2.35115   2.37403
  Beta virt. eigenvalues --    2.39208   2.39440   2.40474   2.43412   2.44696
  Beta virt. eigenvalues --    2.45937   2.46249   2.46803   2.47254   2.47650
  Beta virt. eigenvalues --    2.48580   2.49471   2.50327   2.51378   2.52641
  Beta virt. eigenvalues --    2.53248   2.54663   2.55592   2.56211   2.56387
  Beta virt. eigenvalues --    2.57948   2.58724   2.58879   2.59546   2.60075
  Beta virt. eigenvalues --    2.61582   2.63856   2.65035   2.66714   2.67221
  Beta virt. eigenvalues --    2.67675   2.68443   2.69951   2.70831   2.71825
  Beta virt. eigenvalues --    2.72100   2.74802   2.76289   2.76987   2.78278
  Beta virt. eigenvalues --    2.79397   2.80601   2.84425   2.85167   2.86069
  Beta virt. eigenvalues --    2.87275   2.87783   2.89036   2.92620   2.93251
  Beta virt. eigenvalues --    2.94044   2.95047   2.96307   2.97240   2.98079
  Beta virt. eigenvalues --    2.99812   3.03437   3.03728   3.05838   3.07898
  Beta virt. eigenvalues --    3.11368   3.12825   3.14312   3.15801   3.18783
  Beta virt. eigenvalues --    3.20245   3.21280   3.23748   3.24875   3.25306
  Beta virt. eigenvalues --    3.26391   3.31969   3.32487   3.38769   3.40237
  Beta virt. eigenvalues --    3.40987   3.42831   3.44990   3.53926   3.54810
  Beta virt. eigenvalues --    3.55844   3.67943   3.68775   3.74506   3.77503
  Beta virt. eigenvalues --    3.78111   3.79614   3.80801   3.81123   3.81401
  Beta virt. eigenvalues --    3.82259   3.83940   3.85448   3.86121   3.87156
  Beta virt. eigenvalues --    3.88412   3.89705   3.90483   3.96037   3.96500
  Beta virt. eigenvalues --    4.05498   4.08659   4.18278   4.20062   4.24041
  Beta virt. eigenvalues --    4.30692   4.34549   4.35725   4.40307   4.64775
  Beta virt. eigenvalues --    4.88211   4.88971   4.91474   4.99852   5.02245
  Beta virt. eigenvalues --    5.04361   5.10063   5.18240   5.18803   5.31443
  Beta virt. eigenvalues --    5.37585   5.64114   5.71270   5.82692   5.95393
  Beta virt. eigenvalues --   23.77798  23.79142  23.87314  23.88183  23.91464
  Beta virt. eigenvalues --   23.94775  23.97706  23.99215  24.02302  24.03648
  Beta virt. eigenvalues --   24.06907  35.51781  35.72552  49.95332  49.97033
  Beta virt. eigenvalues --   50.03312  50.08329
          Condensed to atoms (all electrons):
               1          2          3          4          5          6
     1  O    7.999307   0.316929   0.005774   0.000015   0.000000  -0.049713
     2  H    0.316929   0.434473  -0.000273   0.000007   0.000000  -0.001082
     3  C    0.005774  -0.000273   5.564910   0.190958  -0.072884   0.214980
     4  N    0.000015   0.000007   0.190958   6.838596   0.183873  -0.045277
     5  O    0.000000   0.000000  -0.072884   0.183873   8.324014   0.004799
     6  C   -0.049713  -0.001082   0.214980  -0.045277   0.004799   5.323460
     7  C    0.251930  -0.038726  -0.045126  -0.010979   0.000228   0.316069
     8  C   -0.050738   0.009441   0.003671  -0.029904   0.005061  -0.096085
     9  C    0.003347  -0.000660  -0.096002   0.200358  -0.075922   0.010747
    10  C   -0.000087   0.000023   0.007183  -0.059126   0.005933  -0.001925
    11  C   -0.000125  -0.000001   0.332074  -0.070583  -0.001601  -0.059881
    12  C   -0.000208   0.000028  -0.002778  -0.061262  -0.004842  -0.000289
    13  C   -0.000045   0.000015   0.293328  -0.068788  -0.005578  -0.090199
    14  H   -0.001114   0.004680  -0.027005   0.004565  -0.000128   0.405232
    15  H    0.009269  -0.001368  -0.027185  -0.001153  -0.000187   0.397415
    16  H    0.004333  -0.000305  -0.001257   0.003712  -0.000104   0.011471
    17  H    0.004957  -0.000306   0.001794  -0.000015  -0.000241  -0.009138
    18  H   -0.000014   0.000001  -0.000064   0.004471   0.000479  -0.000033
    19  H   -0.000017   0.000000  -0.000081   0.001508  -0.000124   0.000134
    20  H    0.000003  -0.000001   0.000173  -0.004116   0.006202  -0.000066
    21  H   -0.000043   0.000003  -0.037544   0.001090  -0.000588  -0.007508
    22  H   -0.000008   0.000001  -0.040395   0.006121   0.000374  -0.003601
    23  H    0.000004  -0.000001  -0.030851  -0.007470   0.011239   0.006982
    24  H   -0.025348  -0.004801   0.003889  -0.000757  -0.000056  -0.067473
    25  H    0.000005  -0.000004   0.000024  -0.008278   0.011229  -0.000147
    26  H   -0.000043   0.000001  -0.000244   0.005744  -0.000246  -0.000123
    27  H   -0.000046   0.000023   0.000775  -0.001429  -0.000157  -0.000513
    28  H   -0.000010   0.000002  -0.038532   0.006541  -0.000246  -0.004841
    29  H    0.000007  -0.000002  -0.038418  -0.011654   0.013237   0.009911
    30  H   -0.000142  -0.000017  -0.030586  -0.000503  -0.000275  -0.008197
    31  O    0.000000   0.000000   0.000000   0.000000   0.000002   0.000000
    32  O    0.000000   0.000000  -0.000115   0.000003  -0.000544   0.000000
    33  N    0.000000   0.000000  -0.000195   0.002170  -0.037474   0.000001
    34  C    0.000000   0.000000   0.000040  -0.000153   0.005374   0.000000
    35  C    0.000000   0.000000  -0.000024   0.000006   0.001146   0.000000
    36  H    0.000000   0.000000   0.000000   0.000008  -0.000035   0.000000
    37  H    0.000000   0.000000   0.000010  -0.000023   0.000921   0.000000
    38  H    0.000000   0.000000  -0.000002  -0.000083   0.002250   0.000001
    39  H    0.000000   0.000000   0.000289  -0.004439   0.003169  -0.000006
    40  H    0.000000   0.000000   0.000000   0.000000  -0.000002   0.000000
               7          8          9         10         11         12
     1  O    0.251930  -0.050738   0.003347  -0.000087  -0.000125  -0.000208
     2  H   -0.038726   0.009441  -0.000660   0.000023  -0.000001   0.000028
     3  C   -0.045126   0.003671  -0.096002   0.007183   0.332074  -0.002778
     4  N   -0.010979  -0.029904   0.200358  -0.059126  -0.070583  -0.061262
     5  O    0.000228   0.005061  -0.075922   0.005933  -0.001601  -0.004842
     6  C    0.316069  -0.096085   0.010747  -0.001925  -0.059881  -0.000289
     7  C    4.975635   0.280824  -0.043852   0.008126   0.006948  -0.005772
     8  C    0.280824   5.360549   0.209133  -0.067399  -0.002740  -0.132674
     9  C   -0.043852   0.209133   5.534100   0.347083   0.009051   0.289271
    10  C    0.008126  -0.067399   0.347083   4.998101  -0.000284  -0.081090
    11  C    0.006948  -0.002740   0.009051  -0.000284   5.029157  -0.000636
    12  C   -0.005772  -0.132674   0.289271  -0.081090  -0.000636   5.127755
    13  C   -0.005868   0.002189  -0.005876  -0.000546  -0.097829  -0.000982
    14  H   -0.029210   0.009577  -0.000702   0.000065  -0.004874  -0.000042
    15  H   -0.044646  -0.009427   0.001182  -0.000408  -0.006270   0.000348
    16  H   -0.036378   0.414177  -0.025513  -0.005228   0.000100  -0.012160
    17  H   -0.031878   0.403410  -0.042707  -0.008463  -0.000255   0.012735
    18  H    0.000266  -0.002410  -0.038276   0.406520   0.000014  -0.004617
    19  H   -0.000374  -0.005157  -0.032092   0.400429  -0.000030   0.007501
    20  H   -0.000384   0.007689  -0.033331   0.401930  -0.000005  -0.004499
    21  H   -0.000156   0.000225  -0.000065  -0.000042   0.402727   0.000044
    22  H    0.000000  -0.000015  -0.000145   0.000015   0.408825   0.000018
    23  H   -0.000289  -0.000094   0.000606  -0.000042   0.403362  -0.000010
    24  H    0.424244  -0.064046   0.001804  -0.000292  -0.000168   0.005058
    25  H   -0.000343   0.014213  -0.048469  -0.010545  -0.000120   0.398623
    26  H    0.000411  -0.008175  -0.035491  -0.007169   0.000027   0.407957
    27  H    0.001139  -0.005655  -0.020364   0.005434  -0.000050   0.407390
    28  H    0.000287  -0.000005  -0.000251   0.000024  -0.008490   0.000143
    29  H   -0.000306  -0.000091   0.000455  -0.000166  -0.010312   0.000366
    30  H    0.002316  -0.001521   0.000815  -0.000020   0.007990  -0.002064
    31  O    0.000000   0.000000   0.000000  -0.000005   0.000000   0.000000
    32  O    0.000000   0.000000  -0.000022  -0.000007   0.000174   0.000000
    33  N    0.000000   0.000000  -0.000140  -0.000115  -0.000221   0.000004
    34  C    0.000000   0.000001  -0.000036   0.000081   0.000010  -0.000020
    35  C    0.000000   0.000000  -0.000058   0.000105   0.000027   0.000000
    36  H    0.000000   0.000000  -0.000004   0.000004   0.000000   0.000000
    37  H    0.000000   0.000003   0.000003   0.000120  -0.000003   0.000001
    38  H    0.000000   0.000000   0.000020  -0.000001  -0.000024   0.000002
    39  H   -0.000001   0.000005   0.000336  -0.000370  -0.000238  -0.000013
    40  H    0.000000   0.000000  -0.000001   0.000002   0.000000   0.000000
              13         14         15         16         17         18
     1  O   -0.000045  -0.001114   0.009269   0.004333   0.004957  -0.000014
     2  H    0.000015   0.004680  -0.001368  -0.000305  -0.000306   0.000001
     3  C    0.293328  -0.027005  -0.027185  -0.001257   0.001794  -0.000064
     4  N   -0.068788   0.004565  -0.001153   0.003712  -0.000015   0.004471
     5  O   -0.005578  -0.000128  -0.000187  -0.000104  -0.000241   0.000479
     6  C   -0.090199   0.405232   0.397415   0.011471  -0.009138  -0.000033
     7  C   -0.005868  -0.029210  -0.044646  -0.036378  -0.031878   0.000266
     8  C    0.002189   0.009577  -0.009427   0.414177   0.403410  -0.002410
     9  C   -0.005876  -0.000702   0.001182  -0.025513  -0.042707  -0.038276
    10  C   -0.000546   0.000065  -0.000408  -0.005228  -0.008463   0.406520
    11  C   -0.097829  -0.004874  -0.006270   0.000100  -0.000255   0.000014
    12  C   -0.000982  -0.000042   0.000348  -0.012160   0.012735  -0.004617
    13  C    5.071108  -0.003610   0.008015  -0.000050   0.000195   0.000012
    14  H   -0.003610   0.509896  -0.034299  -0.000364  -0.000351   0.000001
    15  H    0.008015  -0.034299   0.526159  -0.000500   0.005655   0.000001
    16  H   -0.000050  -0.000364  -0.000500   0.509384  -0.032674   0.001539
    17  H    0.000195  -0.000351   0.005655  -0.032674   0.521341  -0.001386
    18  H    0.000012   0.000001   0.000001   0.001539  -0.001386   0.523001
    19  H    0.000041   0.000003   0.000026  -0.000027   0.003087  -0.020998
    20  H   -0.000009  -0.000001   0.000014  -0.000218   0.000495  -0.024467
    21  H    0.009848   0.000162   0.002916   0.000005   0.000005   0.000001
    22  H   -0.008675   0.002225  -0.000655  -0.000001   0.000005   0.000000
    23  H   -0.005626  -0.000280   0.000374  -0.000003   0.000019  -0.000001
    24  H    0.002336  -0.009566   0.010433  -0.009643   0.008498  -0.000033
    25  H    0.000643   0.000001   0.000030   0.000590  -0.000568  -0.000111
    26  H    0.000204  -0.000005   0.000010   0.000905   0.000206   0.001607
    27  H   -0.003006   0.000031  -0.000057  -0.000440  -0.000069  -0.000110
    28  H    0.409862   0.002007  -0.000099  -0.000007  -0.000001  -0.000001
    29  H    0.405074   0.000027  -0.000267   0.000001   0.000021  -0.000003
    30  H    0.405604  -0.000435   0.000060   0.000033  -0.000014   0.000002
    31  O    0.000000   0.000000   0.000000   0.000000   0.000000   0.000000
    32  O    0.000001   0.000000  -0.000002   0.000000  -0.000001   0.000000
    33  N   -0.000009   0.000000   0.000000   0.000000   0.000000  -0.000003
    34  C   -0.000001   0.000000   0.000000   0.000000   0.000000   0.000008
    35  C    0.000000   0.000000   0.000000   0.000000  -0.000001  -0.000001
    36  H    0.000000   0.000000   0.000000   0.000000   0.000000   0.000000
    37  H    0.000000   0.000000   0.000000   0.000000   0.000000  -0.000001
    38  H   -0.000010   0.000000   0.000000   0.000000   0.000000   0.000000
    39  H    0.000013   0.000003  -0.000003   0.000002  -0.000003   0.000009
    40  H    0.000000   0.000000   0.000000   0.000000   0.000000   0.000000
              19         20         21         22         23         24
     1  O   -0.000017   0.000003  -0.000043  -0.000008   0.000004  -0.025348
     2  H    0.000000  -0.000001   0.000003   0.000001  -0.000001  -0.004801
     3  C   -0.000081   0.000173  -0.037544  -0.040395  -0.030851   0.003889
     4  N    0.001508  -0.004116   0.001090   0.006121  -0.007470  -0.000757
     5  O   -0.000124   0.006202  -0.000588   0.000374   0.011239  -0.000056
     6  C    0.000134  -0.000066  -0.007508  -0.003601   0.006982  -0.067473
     7  C   -0.000374  -0.000384  -0.000156   0.000000  -0.000289   0.424244
     8  C   -0.005157   0.007689   0.000225  -0.000015  -0.000094  -0.064046
     9  C   -0.032092  -0.033331  -0.000065  -0.000145   0.000606   0.001804
    10  C    0.400429   0.401930  -0.000042   0.000015  -0.000042  -0.000292
    11  C   -0.000030  -0.000005   0.402727   0.408825   0.403362  -0.000168
    12  C    0.007501  -0.004499   0.000044   0.000018  -0.000010   0.005058
    13  C    0.000041  -0.000009   0.009848  -0.008675  -0.005626   0.002336
    14  H    0.000003  -0.000001   0.000162   0.002225  -0.000280  -0.009566
    15  H    0.000026   0.000014   0.002916  -0.000655   0.000374   0.010433
    16  H   -0.000027  -0.000218   0.000005  -0.000001  -0.000003  -0.009643
    17  H    0.003087   0.000495   0.000005   0.000005   0.000019   0.008498
    18  H   -0.020998  -0.024467   0.000001   0.000000  -0.000001  -0.000033
    19  H    0.514151  -0.025052   0.000100   0.000002  -0.000016  -0.000021
    20  H   -0.025052   0.513230  -0.000006  -0.000001  -0.000003   0.000038
    21  H    0.000100  -0.000006   0.530779  -0.026909  -0.024224  -0.000052
    22  H    0.000002  -0.000001  -0.026909   0.532050  -0.022337  -0.000012
    23  H   -0.000016  -0.000003  -0.024224  -0.022337   0.505874   0.000040
    24  H   -0.000021   0.000038  -0.000052  -0.000012   0.000040   0.562044
    25  H   -0.000050   0.003697   0.000000  -0.000002  -0.000084   0.000022
    26  H    0.000233  -0.000700  -0.000003  -0.000001   0.000004   0.000421
    27  H   -0.000255   0.000012  -0.000003   0.000004   0.000005  -0.000506
    28  H   -0.000002   0.000001   0.000249   0.001770  -0.000667   0.000086
    29  H   -0.000001  -0.000048  -0.000081  -0.000203   0.002585  -0.000032
    30  H   -0.000008   0.000008  -0.000452   0.000154  -0.000007   0.002675
    31  O   -0.000036   0.000008   0.000000   0.000000   0.000005   0.000000
    32  O    0.000443  -0.000027   0.000559  -0.000003   0.001088   0.000000
    33  N   -0.000022   0.000026  -0.000030  -0.000007   0.001325   0.000000
    34  C    0.000009   0.000444   0.000008   0.000000  -0.000189   0.000000
    35  C    0.000447  -0.000312   0.000010   0.000000   0.000106   0.000000
    36  H    0.000004   0.000036   0.000000   0.000000  -0.000001   0.000000
    37  H   -0.000117   0.000885  -0.000002   0.000000   0.000009   0.000000
    38  H   -0.000006   0.000000  -0.000015  -0.000003   0.000900   0.000000
    39  H    0.000001  -0.000039   0.000011   0.000030  -0.000664  -0.000001
[...]
 0.00004533,-0.00001691,-0.00004968,-0.00000030,0.00000922,0.00001182,0
 .00001637,-0.00013714,-0.00003725,0.00000055,0.00001604,0.00005412,-0.
 00006250,0.00012830,-0.00000957,0.00002036,-0.00001154,-0.00005462,0.0
 0000714,-0.00003732,-0.00000676,-0.00000919,0.00000145,-0.00000375,0.0
 0000100,0.00000081,0.00000522,0.00000104,0.00000002,-0.00000908,-0.000
 00199,-0.00000074,0.00000238,0.00000028,-0.00000052,-0.00000384,0.0000
 0167,-0.00000108,-0.00000123,-0.00000050,0.00000164,0.00284892,0.00014
 499,0.00030783,0.00493437,-0.00498985,-0.00232618,0.01589791,0.0069855
 8,0.00153662,-0.11121060,-0.10391717,-0.00884064,-0.03561114,-0.015902
 93,-0.00183063,0.11370875,0.11252157,0.00000244,-0.00000399,0.00001471
 ,-0.00000060,0.00000351,-0.00000025,-0.00005308,0.00002945,-0.00002470
 ,-0.00001470,0.00002421,-0.00001114,-0.00030786,-0.00024634,0.00026977
 ,-0.00002204,0.00000960,0.00001741,0.00000736,0.00000375,-0.00002678,-
 0.00001113,0.00000013,0.00003243,0.00002717,-0.00002542,-0.00013470,-0
 .00022554,0.00015658,-0.00009356,0.00006274,-0.00009468,-0.00006072,0.
 00002141,0.00001903,0.00005843,0.00000499,-0.00002455,0.00000305,0.000
 00352,-0.00000271,0.00000096,0.00000200,-0.00000626,-0.00000993,0.0000
 0973,-0.00000764,0.00000380,0.00001179,-0.00002594,-0.00000229,0.00012
 692,0.00005496,-0.00000827,0.00017319,-0.00008238,0.00000572,-0.000041
 41,-0.00000320,0.00002133,-0.00011752,0.00009129,-0.00001560,-0.000063
 93,-0.00006041,-0.00001464,0.00006392,-0.00000887,0.00005447,0.0000011
 6,0.00000276,0.00000372,0.00000386,-0.00000100,-0.00000323,-0.00001646
 ,-0.00000373,0.00000673,0.00002132,0.00000205,-0.00000021,-0.00000464,
 0.00000061,-0.00000249,0.00000291,0.00000192,0.00000126,-0.00001451,-0
 .00000309,0.00000115,-0.00050580,0.00142647,-0.00076627,0.00067077,-0.
 00007324,0.00044635,-0.03206422,-0.00885953,-0.00555582,-0.01726361,-0
 .00652583,-0.04638155,-0.00131672,-0.00601909,-0.00045849,0.02979814,0
 .00786118,0.05456555,-0.00000341,0.00002462,0.00000604,-0.00000139,-0.
 00000196,0.00000054,-0.00000943,-0.00001401,-0.00007316,0.00011635,0.0
 0000580,0.00004165,0.00017477,0.00019946,0.00011199,-0.00002431,0.0000
 0308,0.00000719,0.00000304,-0.00001816,-0.00001241,-0.00000500,0.00001
 803,0.00002124,-0.00008278,-0.00002429,-0.00002027,0.00007304,-0.00024
 199,0.00003970,-0.00000162,-0.00004162,0.00001142,0.00000085,0.0000132
 0,0.00001052,-0.00000651,0.00000167,0.00001840,0.00000633,0.00000440,0
 .00000574,0.00000706,-0.00001387,-0.00000957,0.00000376,0.00000501,-0.
 00000596,0.00001330,-0.00000713,0.00000390,-0.00000415,0.00002395,-0.0
 0000181,0.00001767,-0.00032012,0.00019277,-0.00008378,0.00011688,0.000
 02517,-0.00000389,0.00005439,-0.00002156,-0.00000331,-0.00000543,0.000
 00710,0.00000964,0.00000141,-0.00000410,0.00000370,0.00000450,0.000000
 60,-0.00000110,-0.00000087,0.00000239,0.00000147,-0.00000016,-0.000002
 70,0.00000903,0.00000165,-0.00000065,0.00000643,0.00000143,0.00000456,
 0.00000018,-0.00000190,-0.00000123,-0.00000321,0.00000013,-0.00000108,
 -0.00006575,0.00077785,-0.00090568,-0.00021148,0.00030028,-0.00027337,
 0.01088821,-0.00375293,-0.01747178,-0.12722131,0.03966178,0.12152381,-
 0.00210024,-0.00206903,0.00343226,-0.01507813,0.00790597,0.02185795,0.
 13360595,-0.00000713,0.00005341,0.00003156,-0.00000245,0.00000490,-0.0
 0000034,0.00002396,-0.00010502,-0.00011523,-0.00006693,-0.00023455,-0.
 00005035,0.00028046,0.00019627,0.00021336,0.00008742,-0.00003014,-0.00
 000205,-0.00004410,-0.00001435,-0.00005664,0.00009800,-0.00004294,0.00
 007123,0.00007035,-0.00017525,-0.00024689,-0.00063386,0.00033184,-0.00
 004275,0.00001911,0.00006446,0.00001859,0.00002648,0.00012777,0.000101
 24,-0.00002016,0.00003764,0.00005110,-0.00003394,0.00001194,0.00000983
 ,-0.00001072,0.00006747,0.00003077,-0.00001474,0.00001150,-0.00000201,
 -0.00001213,0.00000563,-0.00004567,0.00029492,0.00013072,-0.00006317,0
 .00012049,-0.00105868,0.00035915,-0.00007701,0.00004335,0.00004416,0.0
 0004881,-0.00006715,0.00006710,0.00000032,0.00000648,0.00001943,-0.000
 03759,-0.00000263,-0.00002810,-0.00000026,-0.00001129,0.00001014,-0.00
 001134,-0.00000422,0.00000436,-0.00000796,-0.00000375,-0.00000374,0.00
 007497,0.00000683,0.00000720,0.00002109,0.00000374,0.00001599,-0.00001
 333,-0.00000020,-0.00000840,-0.00000021,-0.00000215,-0.00000712,-0.001
 75354,-0.00004082,0.00189800,-0.00345901,-0.00694365,0.00139242,-0.007
 83093,0.00303466,0.01301128,0.04093655,-0.06265373,-0.05349468,0.02234
 255,-0.00653023,-0.03004180,-0.00852564,0.00454820,0.01268949,-0.04258
 973,0.06898980,-0.00000299,0.00001627,0.00000629,-0.00000104,-0.000000
 89,0.00000029,-0.00004627,0.00000497,-0.00009872,-0.00003191,-0.000132
 10,-0.00004573,0.00004293,0.00005094,0.00015165,-0.00000499,0.00000926
 ,0.00002497,-0.00000004,-0.00002227,-0.00000552,0.00000846,-0.00000751
 ,-0.00002117,-0.00000673,-0.00003146,0.00007807,-0.00011314,0.00031043
 ,-0.00024840,0.00005848,-0.00005944,0.00000283,-0.00000703,0.00001343,
 -0.00001492,-0.00001359,-0.00000596,0.00003428,0.00000325,0.00001294,0
 .00000359,-0.00000153,-0.00001583,-0.00001038,0.00001090,0.00000555,0.
 00000097,-0.00000258,-0.00003771,0.00001036,0.00012453,0.00004113,-0.0
 0003584,0.00021203,0.00031004,0.00007841,-0.00006055,-0.00010472,0.000
 06883,-0.00002562,0.00011591,0.00001815,-0.00003572,-0.00002690,-0.000
 00079,0.00002275,-0.00000206,0.00000665,0.00000369,0.00000332,0.000001
 03,-0.00000332,-0.00000255,0.00000197,0.00000476,0.00000162,-0.0000028
 6,0.00000819,0.00000538,0.00000549,0.00001063,0.00000299,0.00000655,-0
 .00000049,0.00000126,-0.00000371,-0.00000805,0.00000068,-0.00000260,-0
 .00032529,0.00163266,-0.00064686,0.00120732,0.00069256,0.00103082,0.01
 292289,-0.00364859,-0.02825667,0.11511758,-0.04922032,-0.21506835,0.00
 006728,-0.00449914,-0.00156412,-0.00119186,0.00109128,0.00289777,-0.12
 459438,0.05275239,0.24375000,-0.00000825,0.00004412,-0.00002941,-0.000
 00077,-0.00001095,0.00000028,-0.00004013,0.00002232,0.00047819,0.00013
 047,0.00010802,0.00011307,-0.00115666,-0.00082908,0.00003032,0.0000311
 6,0.00000071,-0.00009277,-0.00000671,-0.00000082,0.00005131,-0.0000139
 0,0.00001121,0.00003699,-0.00001476,-0.00005111,-0.00011065,-0.0000643
 1,0.00002412,-0.00000853,-0.00047651,0.00040439,-0.00009627,0.00003333
 ,-0.00000693,0.00005499,0.00008678,0.00006656,-0.00020386,0.00001816,-
 0.00001052,-0.00000102,0.00000977,-0.00003111,-0.00000189,0.00000816,-
 0.00001386,-0.00000570,-0.00000097,-0.00001472,0.00000020,0.00002781,0
 .00001113,0.00000397,0.00000530,-0.00004457,0.00001394,-0.00000567,-0.
 00000207,-0.00000458,0.00020109,-0.00079445,-0.00000634,0.00030454,0.0
 0016381,0.00005965,-0.00016583,0.00003846,-0.00003781,0.00000697,0.000
 00339,-0.00000714,0.00000455,0.00000054,-0.00000327,-0.00002288,-0.000
 00392,0.00000406,0.00000160,-0.00000278,0.00000222,-0.00005105,-0.0000
 0949,-0.00001654,0.00000792,-0.00000208,0.00000627,0.00007279,0.000004
 15,-0.00000154,-0.00023928,0.00042095,-0.00034204,-0.00060522,0.000506
 53,0.00002700,-0.14835255,0.05540146,0.14300671,0.01134011,-0.00632132
 ,-0.01812902,0.00059199,0.00011763,-0.00045378,0.00022004,-0.00057747,
 0.00026146,-0.00092087,0.00167388,-0.00373530,0.15377534,-0.00001373,0
 .00009681,-0.00002969,-0.00000271,-0.00001943,0.00000137,-0.00005626,-
 0.00010707,0.00029247,0.00011722,-0.00006934,0.00007434,-0.00042632,-0
 .00011082,-0.00007698,-0.00000979,0.00000416,-0.00004755,-0.00000720,-
 0.00006834,0.00005430,-0.00002647,0.00001709,-0.00001283,-0.00007419,-
 0.00005755,0.00004288,-0.00006407,0.00000631,-0.00002810,-0.00061430,0
 .00028882,-0.00000608,0.00000147,0.00000989,0.00000458,0.00004079,0.00
 009044,-0.00015213,0.00003586,0.00001580,0.00000729,0.00002206,-0.0000
 9997,-0.00002000,0.00002228,0.00000949,-0.00001375,0.00000231,-0.00005
 606,0.00002100,0.00002329,0.00000783,-0.00001587,-0.00001300,-0.000014
 50,0.00005715,0.00001463,0.00000441,-0.00000073,-0.00029678,-0.0009671
 0,-0.00030800,0.00029682,0.00014138,0.00008027,0.00002690,0.00004361,-
 0.00002183,0.00001662,0.00001392,-0.00000851,-0.00000170,-0.00000211,0
 .00000216,0.00000223,0.00000017,-0.00001090,0.00000263,0.00000063,0.00
 000731,-0.00002349,-0.00000549,-0.00000173,0.00000170,-0.00000588,0.00
 000233,0.00007527,0.00000914,-0.00000540,-0.00062722,0.00082868,-0.001
 75240,0.00002650,0.00123919,-0.00193372,0.08100739,-0.06482585,-0.1404
 1993,-0.00465666,-0.00116943,0.01802465,-0.00063057,0.00083202,0.00475
 597,0.00012789,0.00008250,-0.00091938,0.00074968,-0.00023325,0.0015273
 0,-0.06670462,0.06295485,0.00000806,-0.00005495,0.00000978,0.00000147,
 0.00000988,-0.00000122,0.00004405,0.00011415,0.00003600,0.00000148,0.0
 0010395,-0.00002637,-0.00035699,-0.00025657,0.00013223,0.00000170,0.00
 000304,-0.00000696,0.00000479,0.00005250,-0.00001903,0.00000476,-0.000
 00252,0.00003103,0.00005147,0.00004741,-0.00013259,0.00000247,0.000007
 62,0.00001185,0.00025022,-0.00024364,-0.00014892,0.00001961,-0.0000148
 7,0.00004288,-0.00000337,-0.00004048,-0.00000380,-0.00001697,-0.000019
 29,-0.00000559,-0.00000563,0.00006588,0.00000619,-0.00000852,-0.000018
 40,0.00000842,0.00000055,0.00002952,-0.00001095,0.00000482,0.00000576,
 0.00001598,0.00000164,-0.00003445,-0.00002743,-0.00001284,-0.00000015,
 -0.00000581,-0.00013338,0.00012900,0.00036176,-0.00013826,-0.00006920,
 -0.00005093,0.00003299,0.00009181,0.00004392,-0.00000883,-0.00000759,0
 .00000292,0.00000551,0.00000133,-0.00000543,-0.00001939,-0.00000354,0.
 00001287,-0.00000014,-0.00000175,-0.00000577,-0.00000996,-0.00000303,-
 0.00000596,0.00000379,0.00000413,0.00000457,-0.00002500,-0.00000609,0.
 00000913,0.00045441,-0.00062713,0.00106382,0.00056874,-0.00002215,0.00
 180034,0.14181572,-0.09471688,-0.29691218,0.01494660,-0.01121428,-0.02
 970023,0.00042905,-0.00140815,-0.00139628,-0.00001147,-0.00026450,0.00
 042820,-0.00409156,0.00205442,-0.00315698,-0.15241737,0.10738695,0.326
 18311,-0.00003987,0.00022661,-0.00000333,-0.00000651,-0.00002408,0.000
 00462,0.00040687,-0.00040605,-0.00125022,-0.00099688,-0.00190731,-0.00
 009128,-0.00136319,0.00076700,0.00069312,0.00020378,-0.00002334,0.0001
 4442,-0.00009079,-0.00023203,-0.00000254,0.00024385,-0.00005591,-0.000
 31935,0.00008566,0.00014630,0.00094714,0.00023131,0.00017830,-0.000032
 85,0.00090372,-0.00099327,-0.00020499,-0.00023329,0.00018001,-0.000376
 99,-0.00026605,0.00017615,0.00056243,-0.00005533,0.00014214,0.00004390
 ,-0.00000946,0.00006432,-0.00001364,-0.00005719,0.00016689,-0.00002874
 ,-0.00002137,0.00001911,0.00000487,-0.00007404,-0.00000591,-0.00011114
 ,-0.00001142,-0.00000015,-0.00001448,-0.00003761,0.00004058,0.00008219
 ,-0.00029443,0.00037562,0.00001322,-0.00046946,0.00000101,0.00007259,-
 0.00021184,0.00008255,-0.00061142,0.00001298,-0.00001017,0.00000443,-0
 .00007711,-0.00001361,0.00005719,0.00018499,0.00002215,-0.00009264,0.0
 0001425,0.00001998,0.00002436,0.00021923,0.00002698,0.00010438,-0.0000
 8851,-0.00001455,-0.00006315,-0.00002538,0.00002677,-0.00002568,0.0008
 2573,-0.00137808,0.00116807,0.00059467,-0.00101193,0.00073987,-0.36439
 663,-0.12125890,-0.00504902,-0.01648265,-0.00596363,-0.00563825,-0.000
 87373,0.00052970,-0.00017476,0.00165266,0.00094684,-0.00140038,0.00091
 452,-0.00017293,0.00068216,-0.01472139,-0.00856539,-0.00128033,0.39429
 071,-0.00005255,0.00033537,-0.00005645,-0.00000976,-0.00005148,0.00000
 643,-0.00028137,-0.00087871,-0.00049009,-0.00124976,-0.00326180,0.0009
 8723,0.00019575,0.00026544,-0.00047021,0.00015575,-0.00001263,0.000003
 87,-0.00007192,-0.00027549,0.00010741,0.00009630,-0.00003132,-0.000161
 20,-0.00016144,-0.00046409,0.00079398,-0.00007565,0.00018633,-0.000137
 20,-0.00093952,-0.00017063,-0.00018914,-0.00012709,0.00016647,-0.00029
 209,-0.00009588,0.00028866,0.00012923,0.00003056,0.00012938,0.00003834
 ,0.00004679,-0.00011896,-0.00003286,0.00000794,0.00011266,-0.00004692,
 0.00000737,-0.00007283,0.00003904,0.00006389,0.00001865,-0.00012271,0.
 00010069,-0.00002170,0.00014673,-0.00000136,0.00003161,0.00006861,0.00
 045757,-0.00144434,-0.00125768,0.00043900,0.00029342,0.00027850,-0.000
 18955,0.00012000,-0.00033761,0.00003956,0.00001639,-0.00001374,-0.0000
 6952,-0.00000256,0.00004771,0.00013536,0.00002825,-0.00008643,0.000027
 18,0.00001632,0.00003216,0.00011224,0.00002273,0.00007245,-0.00005675,
 -0.00001681,-0.00003596,0.00012399,0.00003679,-0.00003038,-0.00079781,
 0.00006453,-0.00094711,-0.00175131,0.00042976,-0.00106705,-0.17189492,
 -0.07994797,-0.00489337,0.01791215,0.00007154,0.00468906,0.00396735,0.
 00176602,0.00246512,0.00035158,-0.00005507,0.00091172,-0.00067754,0.00
 029260,-0.00022511,0.01643954,0.00123394,-0.00112149,0.13784372,0.0810
 7197,0.00001373,-0.00006914,-0.00005709,0.00000287,-0.00000203,-0.0000
 0238,-0.00024897,0.00018382,0.00115845,0.00077941,0.00117468,0.0001212
 6,-0.00092538,-0.00110530,-0.00098954,0.00002941,0.00004811,-0.0003182
 0,-0.00000151,0.00015101,0.00009189,-0.00008085,0.00006264,0.00010627,
 -0.00018258,0.00025421,-0.00061722,0.00006507,-0.00013654,0.00010227,-
 0.00025258,-0.00046466,0.00001644,0.00013822,-0.00015164,0.00025252,0.
 00019891,-0.00006116,-0.00042727,0.00002034,-0.00009861,-0.00001873,0.
 00000612,-0.00000231,0.00002135,0.00000582,-0.00007618,0.00000904,-0.0
 0000337,0.00002443,-0.00001422,-0.00006928,-0.00004706,0.00008368,-0.0
 0015629,0.00007700,-0.00008201,0.00003740,-0.00003973,-0.00009537,0.00
 046753,-0.00101361,-0.00025472,0.00026682,0.00039921,-0.00003424,-0.00
 073911,0.00004067,-0.00059911,-0.00000374,0.00000108,-0.00001165,0.000
 04305,0.00000852,-0.00002933,-0.00012010,-0.00001524,0.00005315,-0.000
 03181,-0.00001561,-0.00001622,-0.00015661,-0.00002959,-0.00006924,0.00
 004801,0.00001209,0.00003271,0.00007044,0.00000764,0.00001726,0.000057
 24,0.00028943,-0.00014550,0.00011695,0.00061090,0.00035225,-0.00413802
 ,-0.00254921,-0.06285561,-0.03477702,-0.01315443,-0.00276287,-0.000561
 63,-0.00094417,-0.00016780,-0.00320839,0.00295145,-0.00517322,0.000275
 08,-0.00085260,0.00063412,0.03152483,0.01347334,0.00128676,0.01139630,
 0.00104285,0.07041438,-0.00003805,0.00015154,0.00004939,0.00000263,-0.
 00001581,-0.00000384,-0.00010226,-0.00005378,-0.00009646,0.00013834,0.
 00003228,-0.00003357,0.00001672,-0.00005260,0.00009441,-0.00004416,0.0
 0003946,0.00000196,0.00020351,-0.00017961,-0.00013462,-0.00057965,0.00
 009571,0.00007207,-0.00008505,0.00004488,-0.00011036,-0.00041388,-0.00
 024669,0.00004689,-0.00002451,-0.00000461,0.00003797,0.00001591,-0.000
 02280,0.00010653,-0.00000190,0.00000890,0.00000839,0.00003594,0.000016
 15,0.00003865,0.00001360,-0.00007795,-0.00004747,0.00018154,0.00002378
 ,-0.00001209,-0.00027562,-0.00060989,-0.00027808,0.00011191,0.00003296
 ,-0.00003942,-0.00018377,0.00040879,0.00012430,0.00021589,0.00001021,-
 0.00004923,-0.00002131,0.00002765,-0.00010553,0.00002703,0.00000963,0.
 00002787,0.00001936,-0.00000802,0.00000732,0.00003903,0.00006870,0.000
 08523,0.00003560,-0.00001410,-0.00000510,-0.00001756,0.00000116,-0.000
 00708,0.00004197,0.00001637,0.00000919,0.00000815,0.00000150,0.0000151
 2,0.00000281,-0.00000610,-0.00000129,-0.00000082,0.00000149,-0.0000102
 7,-0.02941541,0.06108411,-0.01051567,-0.00293337,-0.00318399,0.0052064
 8,0.00037262,0.00062791,-0.00050176,0.00219665,-0.00039161,-0.00347512
 ,-0.00275983,0.02650930,-0.00406391,0.00029699,0.00082779,0.00030942,-
 0.00002364,-0.00079371,-0.00029539,-0.00001018,0.00020093,-0.00011389,
 0.00011923,-0.00005061,0.00009369,0.03283555,0.00000859,-0.00006142,0.
 00000607,0.00000318,0.00000717,-0.00000284,0.00011201,0.00005468,0.000
 05664,-0.00011199,0.00002572,-0.00001104,-0.00002245,-0.00004286,-0.00
 001745,0.00006955,-0.00002596,-0.00002145,0.00003756,0.00005390,-0.000
 02618,-0.00010917,-0.00000061,0.00001872,0.00010229,0.00010782,-0.0000
 0090,0.00020194,0.00003693,-0.00001006,0.00007372,0.00002479,-0.000044
 64,-0.00001077,-0.00006214,-0.00003088,0.00000102,-0.00001243,0.000006
 12,-0.00004034,-0.00001986,-0.00000540,-0.00001253,0.00010920,0.000054
 79,0.00000409,-0.00001141,0.00001011,-0.00021946,0.00001946,-0.0001750
 0,-0.00008820,-0.00001931,0.00003619,0.00028938,-0.00008761,-0.0000587
 3,-0.00008166,-0.00001186,0.00001361,0.00001838,-0.00005679,0.00014996
 ,-0.00004706,-0.00001314,-0.00002907,-0.00004126,-0.00000032,-0.000011
 54,-0.00000872,-0.00000798,0.00002482,0.00001159,0.00000177,-0.0000022
 1,-0.00000024,0.00000317,0.00000601,-0.00002832,-0.00000351,-0.0000056
 0,-0.00000397,-0.00000064,-0.00000699,-0.00000109,0.00000255,0.0000018
 8,-0.00001262,-0.00000404,0.00000568,0.07922740,-0.49231153,-0.0093299
 2,-0.00404449,0.00014627,-0.00736376,-0.00000002,-0.00002611,-0.000190
 31,0.00124633,0.00345579,0.00219776,0.00848774,-0.01916135,0.01088838,
 -0.00041018,0.00034915,-0.00029141,-0.00009441,0.00018477,-0.00055975,
 -0.00003104,-0.00011890,0.00004377,0.00005453,-0.00017246,0.00001572,-
 0.08452932,0.50764909,-0.00000973,0.00006659,-0.00000238,-0.00000294,-
 0.00001234,0.00000088,-0.00009624,-0.00001839,-0.00003402,0.00012770,-
 0.00000145,0.00000418,-0.00000324,-0.00001000,0.00000932,-0.00007693,0
 .00003322,0.00001760,0.00003356,-0.00007449,0.00000142,-0.00012280,0.0
 0002952,-0.00004241,-0.00008126,0.00000296,0.00003911,-0.00008967,0.00
 003234,-0.00000405,-0.00005895,-0.00003077,0.00004273,-0.00000136,-0.0
 0000654,0.00000849,0.00000272,0.00000174,-0.00001239,0.00004324,0.0000
 1500,0.00001203,0.00001079,-0.00009609,-0.00005150,0.00006710,0.000013
 98,-0.00000840,-0.00006251,-0.00016857,0.00013988,0.00005108,0.0000087
 0,-0.00002109,-0.00010647,-0.00006771,0.00007228,0.00000208,-0.0000038
 2,-0.00000982,-0.00001370,0.00006228,-0.00013868,0.00003825,0.00000991
 ,0.00002183,0.00003640,-0.00000362,0.00001535,0.00001795,0.00002424,0.
 00000362,0.00000641,-0.00000319,-0.00000171,0.00000152,0.00000021,-0.0
 0000606,0.00000662,0.00000343,0.00000423,0.00000026,0.00000052,0.00000
 494,0.00000471,-0.00000380,0.00000028,0.00000864,0.00000402,-0.0000044
 6,-0.00319308,-0.05134742,-0.04292306,0.00454452,-0.00472371,0.0031280
 8,-0.00079089,0.00156913,-0.00041671,-0.00328635,-0.00117441,-0.004108
 26,-0.01067359,0.05128170,-0.00098110,0.00014030,-0.00040457,-0.000088
 94,-0.00010874,0.00020835,0.00037054,0.00002936,-0.00003014,0.00013068
 ,0.00003993,0.00015432,-0.00001227,0.01356528,0.00465888,0.04483986\\0
 .00000826,-0.00000157,-0.00000063,0.00000060,-0.00000221,0.00000066,-0
 .00001035,0.00000078,-0.00000078,0.00000783,-0.00000151,0.00000705,-0.
 00000195,0.00000140,-0.00000482,0.00000098,0.00000128,0.00000273,-0.00
 000296,0.00000884,0.00000580,-0.00000777,-0.00000146,-0.00000063,-0.00
 000584,0.00000016,-0.00001002,-0.00000032,0.00000242,0.00000175,0.0000
 0085,-0.00000209,0.00000555,0.00000899,-0.00000275,0.00000321,0.000008
 64,0.00000039,-0.00000237,0.00000544,0.00000150,-0.00000217,0.00000149
 ,-0.00000445,-0.00000051,0.00000548,0.00000028,0.00000089,-0.00000020,
 0.00000380,0.00000037,-0.00000219,-0.00000066,-0.00000060,-0.00000111,
 0.00000396,0.00000155,-0.00000127,-0.00000465,-0.00000068,0.00000276,-
 0.00000113,0.00000025,0.00000322,0.00000044,-0.00000174,-0.00000111,-0
 .00000251,-0.00000285,0.00000234,-0.00000230,-0.00000358,-0.00000195,-
 0.00000062,-0.00000216,-0.00000076,-0.00000137,-0.00000202,-0.00000565
 ,-0.00000266,-0.00000405,0.00000225,-0.00000011,-0.00000250,-0.0000018
 5,-0.00000384,-0.00000192,-0.00000012,-0.00000580,0.00000037,0.0000037
 9,0.00000108,0.00001098,0.00000761,-0.00000171,-0.00000739,0.00000413,
 -0.00000834,0.00000885,0.00000889,0.00000790,-0.00000492,-0.00002273,0
 .00001172,0.00000185,-0.00000573,0.00000526,-0.00000251,-0.00000313,-0
 .00000240,0.00000400,0.00000050,0.00000085,0.00000045,-0.00000560,0.00
 000035,0.00000149,-0.00000149,0.00000176,0.00000110\\\@


 QUANTUM MECHANICS IS BOHRING -- M.S. GORDON
 Job cpu time:       0 days 13 hours 55 minutes 57.4 seconds.
 Elapsed time:       0 days  1 hours 44 minutes 31.0 seconds.
 File lengths (MBytes):  RWF=   1502 Int=      0 D2E=      0 Chk=     34 Scr=      1
 Normal termination of Gaussian 16 at Tue Dec 22 08:58:46 2020.
