 Entering Gaussian System, Link 0=g16
 Input=Tem_Gly.gjf
 Output=Tem_Gly.log
 Initial command:
 /share/apps/g16/l1.exe "/backup/31479.cluster.hpc/Gau-23733.inp" -scrdir="/backup/31479.cluster.hpc/"
 Entering Link 1 = /share/apps/g16/l1.exe PID=     23734.
  
 Copyright (c) 1988,1990,1992,1993,1995,1998,2003,2009,2016,
            Gaussian, Inc.  All Rights Reserved.
  
 This is part of the Gaussian(R) 16 program.  It is based on
 the Gaussian(R) 09 system (copyright 2009, Gaussian, Inc.),
 the Gaussian(R) 03 system (copyright 2003, Gaussian, Inc.),
 the Gaussian(R) 98 system (copyright 1998, Gaussian, Inc.),
 the Gaussian(R) 94 system (copyright 1995, Gaussian, Inc.),
 the Gaussian 92(TM) system (copyright 1992, Gaussian, Inc.),
 the Gaussian 90(TM) system (copyright 1990, Gaussian, Inc.),
 the Gaussian 88(TM) system (copyright 1988, Gaussian, Inc.),
 the Gaussian 86(TM) system (copyright 1986, Carnegie Mellon
 University), and the Gaussian 82(TM) system (copyright 1983,
 Carnegie Mellon University). Gaussian is a federally registered
 trademark of Gaussian, Inc.
  
 This software contains proprietary and confidential information,
 including trade secrets, belonging to Gaussian, Inc.
  
 This software is provided under written license and may be
 used, copied, transmitted, or stored only in accord with that
 written license.
  
 The following legend is applicable only to US Government
 contracts under FAR:
  
                    RESTRICTED RIGHTS LEGEND
  
 Use, reproduction and disclosure by the US Government is
 subject to restrictions as set forth in subparagraphs (a)
 and (c) of the Commercial Computer Software - Restricted
 Rights clause in FAR 52.227-19.
  
 Gaussian, Inc.
 340 Quinnipiac St., Bldg. 40, Wallingford CT 06492
  
  
 ---------------------------------------------------------------
 Warning -- This program may not be used in any manner that
 competes with the business of Gaussian, Inc. or will provide
 assistance to any competitor of Gaussian, Inc.  The licensee
 of this program is prohibited from giving any competitor of
 Gaussian, Inc. access to this program.  By using this program,
 the user acknowledges that Gaussian, Inc. is engaged in the
 business of creating and licensing software in the field of
 computational chemistry and represents and warrants to the
 licensee that it is not a competitor of Gaussian, Inc. and that
 it will not use this program in any manner prohibited above.
 ---------------------------------------------------------------
  

 Cite this work as:
 Gaussian 16, Revision A.03,
 M. J. Frisch, G. W. Trucks, H. B. Schlegel, G. E. Scuseria, 
 M. A. Robb, J. R. Cheeseman, G. Scalmani, V. Barone, 
 G. A. Petersson, H. Nakatsuji, X. Li, M. Caricato, A. V. Marenich, 
 J. Bloino, B. G. Janesko, R. Gomperts, B. Mennucci, H. P. Hratchian, 
 J. V. Ortiz, A. F. Izmaylov, J. L. Sonnenberg, D. Williams-Young, 
 F. Ding, F. Lipparini, F. Egidi, J. Goings, B. Peng, A. Petrone, 
 T. Henderson, D. Ranasinghe, V. G. Zakrzewski, J. Gao, N. Rega, 
 G. Zheng, W. Liang, M. Hada, M. Ehara, K. Toyota, R. Fukuda, 
 J. Hasegawa, M. Ishida, T. Nakajima, Y. Honda, O. Kitao, H. Nakai, 
 T. Vreven, K. Throssell, J. A. Montgomery, Jr., J. E. Peralta, 
 F. Ogliaro, M. J. Bearpark, J. J. Heyd, E. N. Brothers, K. N. Kudin, 
 V. N. Staroverov, T. A. Keith, R. Kobayashi, J. Normand, 
 K. Raghavachari, A. P. Rendell, J. C. Burant, S. S. Iyengar, 
 J. Tomasi, M. Cossi, J. M. Millam, M. Klene, C. Adamo, R. Cammi, 
 J. W. Ochterski, R. L. Martin, K. Morokuma, O. Farkas, 
 J. B. Foresman, and D. J. Fox, Gaussian, Inc., Wallingford CT, 2016.
 
 ******************************************
 Gaussian 16:  ES64L-G16RevA.03 25-Dec-2016
                21-Dec-2020 
 ******************************************
 %mem=2GB
 %nprocshared=8
 Will use up to    8 processors via shared memory.
 %chk=Tem_Gly.chk
 -----------------------------------------------------
 # scrf=(solvent=water,pcm) opt freq m062x/6-311g(d,p)
 -----------------------------------------------------
 1/18=20,19=15,26=3,38=1/1,3;
 2/9=110,12=2,17=6,18=5,40=1/2;
 3/5=4,6=6,7=101,11=2,25=1,30=1,70=2201,71=1,72=1,74=-55/1,2,3;
 4//1;
 5/5=2,38=5,53=1/2;
 6/7=2,8=2,9=2,10=2,28=1/1;
 7//1,2,3,16;
 1/18=20,19=15,26=3/3(2);
 2/9=110/2;
 99//99;
 2/9=110/2;
 3/5=4,6=6,7=101,11=2,25=1,30=1,70=2205,71=1,72=1,74=-55/1,2,3;
 4/5=5,16=3,69=1/1;
 5/5=2,38=5,53=1/2;
 7//1,2,3,16;
 1/18=20,19=15,26=3/3(-5);
 2/9=110/2;
 6/7=2,8=2,9=2,10=2,19=2,28=1/1;
 99/9=1/99;
 -------------------
 Title Card Required
 -------------------
 Symbolic Z-matrix:
 Charge =  0 Multiplicity = 2
 O                    0     24.437    24.935    21.56    L 
 H                    0     24.896    25.246    22.36    L 
 C                    0     23.473    21.502    22.959   L 
 N                    0     22.919    20.992    21.662   L 
 O                    0     22.487    19.759    21.649   L 
 C                    0     23.666    23.052    22.845   L 
 C                    0     24.399    23.494    21.589   L 
 C                    0     23.697    23.016    20.359   L 
 C                    0     23.442    21.515    20.346   L 
 C                    0     22.366    21.189    19.198   L 
 C                    0     22.433    21.153    24.025   L 
 C                    0     24.766    20.92     19.945   L 
 C                    0     24.745    20.796    23.32    L 
 H                    0     24.16     23.411    23.756   L 
 H                    0     22.701    23.572    22.891   L 
 H                    0     24.262    23.33     19.473   L 
 H                    0     22.735    23.521    20.207   L 
 H                    0     22.684    21.691    18.276   L 
 H                    0     21.356    21.522    19.468   L 
 H                    0     22.323    20.108    19.017   L 
 H                    0     21.498    21.703    23.864   L 
 H                    0     22.787    21.499    25.004   L 
 H                    0     22.2      20.083    24.086   L 
 H                    0     25.401    23.052    21.65    L 
 H                    0     24.618    19.833    19.952   L 
 H                    0     24.974    21.199    18.904   L 
 H                    0     25.71     21.058    20.486   L 
 H                    0     24.947    21.006    24.377   L 
 H                    0     24.582    19.715    23.22    L 
 H                    0     25.609    21.04     22.689   L 
 O                    0     19.33686   17.97618   21.64866  H 
 O                    0     20.03792   16.55982   23.2809  H 
 N                    0     22.54497   16.44309   22.35599  H 
 C                    0     21.62455   17.29742   21.62305  H 
 C                    0     20.2773   17.23527   22.28799  H 
 H                    0     21.53609   16.94629   20.59131  H 
 H                    0     21.98605   18.32919   21.63393  H 
 H                    0     22.19327   15.48668   22.3742  H 
 H                    0     22.60549   16.74788   23.32665  H 
 H                    0     18.46041   17.90998   22.08438  H 
 
 Add virtual bond connecting atoms H37        and O5         Dist= 2.86D+00.

 GradGradGradGradGradGradGradGradGradGradGradGradGradGradGradGradGradGrad
 Berny optimization.
 Initialization pass.
                           ----------------------------
                           !    Initial Parameters    !
                           ! (Angstroms and Degrees)  !
 --------------------------                            --------------------------
 ! Name  Definition              Value          Derivative Info.                !
 --------------------------------------------------------------------------------
 ! R1    R(1,2)                  0.9733         estimate D2E/DX2                !
 ! R2    R(1,7)                  1.4418         estimate D2E/DX2                !
 ! R3    R(3,4)                  1.4997         estimate D2E/DX2                !
 ! R4    R(3,6)                  1.5661         estimate D2E/DX2                !
 ! R5    R(3,11)                 1.5296         estimate D2E/DX2                !
 ! R6    R(3,13)                 1.4989         estimate D2E/DX2                !
 ! R7    R(4,5)                  1.3066         estimate D2E/DX2                !
 ! R8    R(4,9)                  1.5096         estimate D2E/DX2                !
 ! R9    R(5,37)                 1.5151         estimate D2E/DX2                !
 ! R10   R(6,7)                  1.5199         estimate D2E/DX2                !
 ! R11   R(6,14)                 1.0967         estimate D2E/DX2                !
 ! R12   R(6,15)                 1.0972         estimate D2E/DX2                !
 ! R13   R(7,8)                  1.4947         estimate D2E/DX2                !
 ! R14   R(7,24)                 1.0969         estimate D2E/DX2                !
 ! R15   R(8,9)                  1.5226         estimate D2E/DX2                !
 ! R16   R(8,16)                 1.0967         estimate D2E/DX2                !
 ! R17   R(8,17)                 1.0971         estimate D2E/DX2                !
 ! R18   R(9,10)                 1.6068         estimate D2E/DX2                !
 ! R19   R(9,12)                 1.5059         estimate D2E/DX2                !
 ! R20   R(10,18)                1.0969         estimate D2E/DX2                !
 ! R21   R(10,19)                1.0972         estimate D2E/DX2                !
 ! R22   R(10,20)                1.0969         estimate D2E/DX2                !
 ! R23   R(11,21)                1.0967         estimate D2E/DX2                !
 ! R24   R(11,22)                1.097          estimate D2E/DX2                !
 ! R25   R(11,23)                1.0968         estimate D2E/DX2                !
 ! R26   R(12,25)                1.0971         estimate D2E/DX2                !
 ! R27   R(12,26)                1.0976         estimate D2E/DX2                !
 ! R28   R(12,27)                1.0968         estimate D2E/DX2                !
 ! R29   R(13,28)                1.0964         estimate D2E/DX2                !
 ! R30   R(13,29)                1.0978         estimate D2E/DX2                !
 ! R31   R(13,30)                1.0974         estimate D2E/DX2                !
 ! R32   R(31,35)                1.3572         estimate D2E/DX2                !
 ! R33   R(31,40)                0.981          estimate D2E/DX2                !
 ! R34   R(32,35)                1.2245         estimate D2E/DX2                !
 ! R35   R(33,34)                1.454          estimate D2E/DX2                !
 ! R36   R(33,38)                1.0192         estimate D2E/DX2                !
 ! R37   R(33,39)                1.0192         estimate D2E/DX2                !
 ! R38   R(34,35)                1.5037         estimate D2E/DX2                !
 ! R39   R(34,36)                1.0934         estimate D2E/DX2                !
 ! R40   R(34,37)                1.0933         estimate D2E/DX2                !
 ! A1    A(2,1,7)              108.3752         estimate D2E/DX2                !
 ! A2    A(4,3,6)              108.6102         estimate D2E/DX2                !
 ! A3    A(4,3,11)             105.8994         estimate D2E/DX2                !
 ! A4    A(4,3,13)             111.1978         estimate D2E/DX2                !
 ! A5    A(6,3,11)             111.1203         estimate D2E/DX2                !
 ! A6    A(6,3,13)             112.2786         estimate D2E/DX2                !
 ! A7    A(11,3,13)            107.5579         estimate D2E/DX2                !
 ! A8    A(3,4,5)              116.8501         estimate D2E/DX2                !
 ! A9    A(3,4,9)              120.5383         estimate D2E/DX2                !
 ! A10   A(5,4,9)              115.6467         estimate D2E/DX2                !
 ! A11   A(3,6,7)              114.041          estimate D2E/DX2                !
 ! A12   A(3,6,14)             108.6029         estimate D2E/DX2                !
 ! A13   A(3,6,15)             110.9549         estimate D2E/DX2                !
 ! A14   A(7,6,14)             111.9621         estimate D2E/DX2                !
 ! A15   A(7,6,15)             108.7228         estimate D2E/DX2                !
 ! A16   A(14,6,15)            101.9            estimate D2E/DX2                !
 ! A17   A(1,7,6)              108.6614         estimate D2E/DX2                !
 ! A18   A(1,7,8)              108.3876         estimate D2E/DX2                !
 ! A19   A(1,7,24)             112.3207         estimate D2E/DX2                !
 ! A20   A(6,7,8)              111.1317         estimate D2E/DX2                !
 ! A21   A(6,7,24)             106.1058         estimate D2E/DX2                !
 ! A22   A(8,7,24)             110.2389         estimate D2E/DX2                !
 ! A23   A(7,8,9)              113.6374         estimate D2E/DX2                !
 ! A24   A(7,8,16)             109.3461         estimate D2E/DX2                !
 ! A25   A(7,8,17)             112.2492         estimate D2E/DX2                !
 ! A26   A(9,8,16)             111.2006         estimate D2E/DX2                !
 ! A27   A(9,8,17)             107.8035         estimate D2E/DX2                !
 ! A28   A(16,8,17)            102.0063         estimate D2E/DX2                !
 ! A29   A(4,9,8)              113.0866         estimate D2E/DX2                !
 ! A30   A(4,9,10)             108.6952         estimate D2E/DX2                !
 ! A31   A(4,9,12)             113.5683         estimate D2E/DX2                !
 ! A32   A(8,9,10)             108.5577         estimate D2E/DX2                !
 ! A33   A(8,9,12)             104.1544         estimate D2E/DX2                !
 ! A34   A(10,9,12)            108.5623         estimate D2E/DX2                !
 ! A35   A(9,10,18)            108.2727         estimate D2E/DX2                !
 ! A36   A(9,10,19)            112.2732         estimate D2E/DX2                !
 ! A37   A(9,10,20)            110.1259         estimate D2E/DX2                !
 ! A38   A(18,10,19)           109.5606         estimate D2E/DX2                !
 ! A39   A(18,10,20)           108.8859         estimate D2E/DX2                !
 ! A40   A(19,10,20)           107.675          estimate D2E/DX2                !
 ! A41   A(3,11,21)            111.281          estimate D2E/DX2                !
 ! A42   A(3,11,22)            109.303          estimate D2E/DX2                !
 ! A43   A(3,11,23)            113.9407         estimate D2E/DX2                !
 ! A44   A(21,11,22)           104.3567         estimate D2E/DX2                !
 ! A45   A(21,11,23)           108.4407         estimate D2E/DX2                !
 ! A46   A(22,11,23)           109.0636         estimate D2E/DX2                !
 ! A47   A(9,12,25)            105.7344         estimate D2E/DX2                !
 ! A48   A(9,12,26)            108.5856         estimate D2E/DX2                !
 ! A49   A(9,12,27)            125.1473         estimate D2E/DX2                !
 ! A50   A(25,12,26)           106.4675         estimate D2E/DX2                !
 ! A51   A(25,12,27)           103.7475         estimate D2E/DX2                !
 ! A52   A(26,12,27)           105.8272         estimate D2E/DX2                !
 ! A53   A(3,13,28)            107.3563         estimate D2E/DX2                !
 ! A54   A(3,13,29)            108.413          estimate D2E/DX2                !
 ! A55   A(3,13,30)            115.1466         estimate D2E/DX2                !
 ! A56   A(28,13,29)           107.6845         estimate D2E/DX2                !
 ! A57   A(28,13,30)           111.512          estimate D2E/DX2                !
 ! A58   A(29,13,30)           106.4679         estimate D2E/DX2                !
 ! A59   A(35,31,40)           111.8998         estimate D2E/DX2                !
 ! A60   A(34,33,38)           109.9941         estimate D2E/DX2                !
 ! A61   A(34,33,39)           109.9961         estimate D2E/DX2                !
 ! A62   A(38,33,39)           106.5054         estimate D2E/DX2                !
 ! A63   A(33,34,35)           108.6607         estimate D2E/DX2                !
 ! A64   A(33,34,36)           109.7649         estimate D2E/DX2                !
 ! A65   A(33,34,37)           109.8865         estimate D2E/DX2                !
 ! A66   A(35,34,36)           109.3601         estimate D2E/DX2                !
 ! A67   A(35,34,37)           109.32           estimate D2E/DX2                !
 ! A68   A(36,34,37)           109.8272         estimate D2E/DX2                !
 ! A69   A(31,35,32)           123.2045         estimate D2E/DX2                !
 ! A70   A(31,35,34)           112.9513         estimate D2E/DX2                !
 ! A71   A(32,35,34)           123.8154         estimate D2E/DX2                !
 ! A72   L(4,5,37,20,-1)       180.0            estimate D2E/DX2                !
 ! A73   L(5,37,34,40,-1)      180.0            estimate D2E/DX2                !
 ! A74   L(4,5,37,20,-2)       180.0            estimate D2E/DX2                !
 ! A75   L(5,37,34,40,-2)      180.0            estimate D2E/DX2                !
 ! D1    D(2,1,7,6)             59.2496         estimate D2E/DX2                !
 ! D2    D(2,1,7,8)           -179.8694         estimate D2E/DX2                !
 ! D3    D(2,1,7,24)           -57.8269         estimate D2E/DX2                !
 ! D4    D(6,3,4,5)           -168.9533         estimate D2E/DX2                !
 ! D5    D(6,3,4,9)             41.5163         estimate D2E/DX2                !
 ! D6    D(11,3,4,5)           -49.5306         estimate D2E/DX2                !
 ! D7    D(11,3,4,9)           160.939          estimate D2E/DX2                !
 ! D8    D(13,3,4,5)            67.0147         estimate D2E/DX2                !
 ! D9    D(13,3,4,9)           -82.5157         estimate D2E/DX2                !
 ! D10   D(4,3,6,7)            -49.0176         estimate D2E/DX2                !
 ! D11   D(4,3,6,14)          -174.6262         estimate D2E/DX2                !
 ! D12   D(4,3,6,15)            74.1579         estimate D2E/DX2                !
 ! D13   D(11,3,6,7)          -165.1185         estimate D2E/DX2                !
 ! D14   D(11,3,6,14)           69.2729         estimate D2E/DX2                !
 ! D15   D(11,3,6,15)          -41.943          estimate D2E/DX2                !
 ! D16   D(13,3,6,7)            74.3684         estimate D2E/DX2                !
 ! D17   D(13,3,6,14)          -51.2402         estimate D2E/DX2                !
 ! D18   D(13,3,6,15)         -162.4561         estimate D2E/DX2                !
 ! D19   D(4,3,11,21)          -65.5593         estimate D2E/DX2                !
 ! D20   D(4,3,11,22)          179.7085         estimate D2E/DX2                !
 ! D21   D(4,3,11,23)           57.4217         estimate D2E/DX2                !
 ! D22   D(6,3,11,21)           52.1993         estimate D2E/DX2                !
 ! D23   D(6,3,11,22)          -62.533          estimate D2E/DX2                !
 ! D24   D(6,3,11,23)          175.1803         estimate D2E/DX2                !
 ! D25   D(13,3,11,21)         175.4629         estimate D2E/DX2                !
 ! D26   D(13,3,11,22)          60.7306         estimate D2E/DX2                !
 ! D27   D(13,3,11,23)         -61.5562         estimate D2E/DX2                !
 ! D28   D(4,3,13,28)         -164.8696         estimate D2E/DX2                !
 ! D29   D(4,3,13,29)          -48.7984         estimate D2E/DX2                !
 ! D30   D(4,3,13,30)           70.3014         estimate D2E/DX2                !
 ! D31   D(6,3,13,28)           73.2064         estimate D2E/DX2                !
 ! D32   D(6,3,13,29)         -170.7224         estimate D2E/DX2                !
 ! D33   D(6,3,13,30)          -51.6226         estimate D2E/DX2                !
 ! D34   D(11,3,13,28)         -49.3448         estimate D2E/DX2                !
 ! D35   D(11,3,13,29)          66.7264         estimate D2E/DX2                !
 ! D36   D(11,3,13,30)        -174.1738         estimate D2E/DX2                !
 ! D37   D(3,4,34,33)          -41.9892         estimate D2E/DX2                !
 ! D38   D(3,4,34,35)           77.1789         estimate D2E/DX2                !
 ! D39   D(3,4,34,36)         -162.8324         estimate D2E/DX2                !
 ! D40   D(9,4,34,33)          109.0327         estimate D2E/DX2                !
 ! D41   D(9,4,34,35)         -131.7991         estimate D2E/DX2                !
 ! D42   D(9,4,34,36)          -11.8104         estimate D2E/DX2                !
 ! D43   D(3,4,9,8)            -40.3598         estimate D2E/DX2                !
 ! D44   D(3,4,9,10)          -160.989          estimate D2E/DX2                !
 ! D45   D(3,4,9,12)            78.0624         estimate D2E/DX2                !
 ! D46   D(5,4,9,8)            169.7631         estimate D2E/DX2                !
 ! D47   D(5,4,9,10)            49.1339         estimate D2E/DX2                !
 ! D48   D(5,4,9,12)           -71.8147         estimate D2E/DX2                !
 ! D49   D(3,6,7,1)            176.3836         estimate D2E/DX2                !
 ! D50   D(3,6,7,8)             57.2082         estimate D2E/DX2                !
 ! D51   D(3,6,7,24)           -62.635          estimate D2E/DX2                !
 ! D52   D(14,6,7,1)           -59.8003         estimate D2E/DX2                !
 ! D53   D(14,6,7,8)          -178.9756         estimate D2E/DX2                !
 ! D54   D(14,6,7,24)           61.1812         estimate D2E/DX2                !
 ! D55   D(15,6,7,1)            52.004          estimate D2E/DX2                !
 ! D56   D(15,6,7,8)           -67.1714         estimate D2E/DX2                !
 ! D57   D(15,6,7,24)          172.9854         estimate D2E/DX2                !
 ! D58   D(1,7,8,9)           -173.1164         estimate D2E/DX2                !
 ! D59   D(1,7,8,16)            61.9909         estimate D2E/DX2                !
 ! D60   D(1,7,8,17)           -50.4566         estimate D2E/DX2                !
 ! D61   D(6,7,8,9)            -53.7772         estimate D2E/DX2                !
 ! D62   D(6,7,8,16)          -178.67           estimate D2E/DX2                !
 ! D63   D(6,7,8,17)            68.8826         estimate D2E/DX2                !
 ! D64   D(24,7,8,9)            63.5768         estimate D2E/DX2                !
 ! D65   D(24,7,8,16)          -61.316          estimate D2E/DX2                !
 ! D66   D(24,7,8,17)         -173.7634         estimate D2E/DX2                !
 ! D67   D(7,8,9,4)             44.5001         estimate D2E/DX2                !
 ! D68   D(7,8,9,10)           165.2075         estimate D2E/DX2                !
 ! D69   D(7,8,9,12)           -79.263          estimate D2E/DX2                !
 ! D70   D(16,8,9,4)           168.3921         estimate D2E/DX2                !
 ! D71   D(16,8,9,10)          -70.9006         estimate D2E/DX2                !
 ! D72   D(16,8,9,12)           44.6289         estimate D2E/DX2                !
 ! D73   D(17,8,9,4)           -80.575          estimate D2E/DX2                !
 ! D74   D(17,8,9,10)           40.1324         estimate D2E/DX2                !
 ! D75   D(17,8,9,12)          155.6619         estimate D2E/DX2                !
 ! D76   D(4,9,10,18)          172.2381         estimate D2E/DX2                !
 ! D77   D(4,9,10,19)           51.1569         estimate D2E/DX2                !
 ! D78   D(4,9,10,20)          -68.8122         estimate D2E/DX2                !
 ! D79   D(8,9,10,18)           48.8524         estimate D2E/DX2                !
 ! D80   D(8,9,10,19)          -72.2288         estimate D2E/DX2                !
 ! D81   D(8,9,10,20)          167.8022         estimate D2E/DX2                !
 ! D82   D(12,9,10,18)         -63.7813         estimate D2E/DX2                !
 ! D83   D(12,9,10,19)         175.1374         estimate D2E/DX2                !
 ! D84   D(12,9,10,20)          55.1684         estimate D2E/DX2                !
 ! D85   D(4,9,12,25)           55.1607         estimate D2E/DX2                !
 ! D86   D(4,9,12,26)          169.0798         estimate D2E/DX2                !
 ! D87   D(4,9,12,27)          -64.8593         estimate D2E/DX2                !
 ! D88   D(8,9,12,25)          178.6112         estimate D2E/DX2                !
 ! D89   D(8,9,12,26)          -67.4696         estimate D2E/DX2                !
 ! D90   D(8,9,12,27)           58.5913         estimate D2E/DX2                !
 ! D91   D(10,9,12,25)         -65.8625         estimate D2E/DX2                !
 ! D92   D(10,9,12,26)          48.0566         estimate D2E/DX2                !
 ! D93   D(10,9,12,27)         174.1175         estimate D2E/DX2                !
 ! D94   D(40,31,35,32)          0.7163         estimate D2E/DX2                !
 ! D95   D(40,31,35,34)        178.8279         estimate D2E/DX2                !
 ! D96   D(38,33,34,35)         58.495          estimate D2E/DX2                !
 ! D97   D(38,33,34,36)        -61.0531         estimate D2E/DX2                !
 ! D98   D(38,33,34,37)        178.0663         estimate D2E/DX2                !
 ! D99   D(39,33,34,35)        -58.5138         estimate D2E/DX2                !
 ! D100  D(39,33,34,36)       -178.0618         estimate D2E/DX2                !
 ! D101  D(39,33,34,37)         61.0575         estimate D2E/DX2                !
 ! D102  D(33,34,35,31)       -178.2567         estimate D2E/DX2                !
 ! D103  D(33,34,35,32)         -0.1585         estimate D2E/DX2                !
 ! D104  D(36,34,35,31)        -58.4562         estimate D2E/DX2                !
 ! D105  D(36,34,35,32)        119.642          estimate D2E/DX2                !
 ! D106  D(37,34,35,31)         61.8189         estimate D2E/DX2                !
 ! D107  D(37,34,35,32)       -120.0829         estimate D2E/DX2                !
 --------------------------------------------------------------------------------
 Trust Radius=3.00D-01 FncErr=1.00D-07 GrdErr=1.00D-06 EigMax=2.50D+02 EigMin=1.00D-04
 Number of steps in this run=    232 maximum allowed number of steps=    240.
 GradGradGradGradGradGradGradGradGradGradGradGradGradGradGradGradGradGrad

                          Input orientation:                          
 ---------------------------------------------------------------------
 Center     Atomic      Atomic             Coordinates (Angstroms)
 Number     Number       Type             X           Y           Z
 ---------------------------------------------------------------------
      1          8           0       24.437000   24.935000   21.560000
      2          1           0       24.896000   25.246000   22.360000
      3          6           0       23.473000   21.502000   22.959000
      4          7           0       22.919000   20.992000   21.662000
      5          8           0       22.487000   19.759000   21.649000
      6          6           0       23.666000   23.052000   22.845000
      7          6           0       24.399000   23.494000   21.589000
      8          6           0       23.697000   23.016000   20.359000
      9          6           0       23.442000   21.515000   20.346000
     10          6           0       22.366000   21.189000   19.198000
     11          6           0       22.433000   21.153000   24.025000
     12          6           0       24.766000   20.920000   19.945000
     13          6           0       24.745000   20.796000   23.320000
     14          1           0       24.160000   23.411000   23.756000
     15          1           0       22.701000   23.572000   22.891000
     16          1           0       24.262000   23.330000   19.473000
     17          1           0       22.735000   23.521000   20.207000
     18          1           0       22.684000   21.691000   18.276000
     19          1           0       21.356000   21.522000   19.468000
     20          1           0       22.323000   20.108000   19.017000
     21          1           0       21.498000   21.703000   23.864000
     22          1           0       22.787000   21.499000   25.004000
     23          1           0       22.200000   20.083000   24.086000
     24          1           0       25.401000   23.052000   21.650000
     25          1           0       24.618000   19.833000   19.952000
     26          1           0       24.974000   21.199000   18.904000
     27          1           0       25.710000   21.058000   20.486000
     28          1           0       24.947000   21.006000   24.377000
     29          1           0       24.582000   19.715000   23.220000
     30          1           0       25.609000   21.040000   22.689000
     31          8           0       19.336865   17.976180   21.648656
     32          8           0       20.037919   16.559823   23.280903
     33          7           0       22.544971   16.443095   22.355994
     34          6           0       21.624548   17.297418   21.623047
     35          6           0       20.277297   17.235273   22.287988
     36          1           0       21.536094   16.946286   20.591306
     37          1           0       21.986046   18.329194   21.633925
     38          1           0       22.193271   15.486683   22.374199
     39          1           0       22.605488   16.747878   23.326653
     40          1           0       18.460407   17.909978   22.084381
 ---------------------------------------------------------------------
                    Distance matrix (angstroms):
                    1          2          3          4          5
     1  O    0.000000
     2  H    0.973346   0.000000
     3  C    3.830403   4.049848   0.000000
     4  N    4.226343   4.742599   1.499742   0.000000
     5  O    5.531853   6.034565   2.392978   1.306553   0.000000
     6  C    2.406523   2.561593   1.566124   2.490200   3.696526
     7  C    1.441793   1.977613   2.588907   2.907874   4.196376
     8  C    2.381714   3.227151   3.017014   2.529757   3.706245
     9  C    3.763007   4.482262   2.613216   1.509607   2.386078
    10  C    4.888824   5.732224   3.933006   2.532965   2.840236
    11  C    4.939207   5.058779   1.529626   2.417827   2.755273
    12  C    4.340126   4.956148   3.330881   2.522832   3.073333
    13  C    4.508191   4.554877   1.498913   2.474198   2.994357
    14  H    2.687326   2.420276   2.179784   3.431687   4.536021
    15  H    2.577407   2.811096   2.210319   2.866071   4.015885
    16  H    2.638602   3.522468   4.014511   3.472983   4.542867
    17  H    2.593609   3.504419   3.492064   2.923478   4.036522
    18  H    4.937732   5.848934   4.752760   3.465375   3.892115
    19  H    5.051494   5.896053   4.082789   2.745452   3.023920
    20  H    5.851134   6.647934   4.336485   2.851788   2.660098
    21  H    4.938822   5.134323   2.181754   2.715431   3.108614
    22  H    5.137094   5.047636   2.156996   3.382815   3.791256
    23  H    5.909886   6.074871   2.214547   2.686823   2.475139
    24  H    2.117330   2.360670   2.798779   3.225534   4.397186
    25  H    5.352460   5.930963   3.624726   2.674693   2.725151
    26  H    4.615236   5.322427   4.334494   3.445640   3.974141
    27  H    4.219613   4.659809   3.364080   3.029359   3.664382
    28  H    4.861340   4.695582   2.104618   3.388835   3.879252
    29  H    5.479510   5.606261   2.119285   2.612214   2.618970
    30  H    4.221285   4.278673   2.202008   2.879780   3.531210
    31  O    8.628118   9.179340   5.590709   4.682632   3.619641
    32  O    9.615456   9.994933   6.027314   5.528622   4.346934
    33  N    8.736466   9.111449   5.178550   4.616716   3.390933
    34  C    8.139197   8.627019   4.783310   3.914979   2.608426
    35  C    8.781737   9.247127   5.372870   4.635025   3.414717
    36  H    8.554132   9.127020   5.487450   4.407564   3.151872
    37  H    7.046227   7.539047   3.746139   2.821653   1.515100
    38  H    9.745149  10.126658   6.177680   5.598430   4.343372
    39  H    8.573474   8.854317   4.846588   4.569675   3.448973
    40  H    9.238266   9.762686   6.228456   5.436572   4.452178
                    6          7          8          9         10
     6  C    0.000000
     7  C    1.519931   0.000000
     8  C    2.486454   1.494720   0.000000
     9  C    2.942371   2.525339   1.522562   0.000000
    10  C    4.296671   3.893969   2.541144   1.606847   0.000000
    11  C    2.553212   3.908904   4.302095   3.831992   4.827599
    12  C    3.763698   3.076183   2.389011   1.505922   2.527918
    13  C    2.545467   3.224171   3.846326   3.325575   4.775455
    14  H    1.096740   2.181719   3.451087   3.967170   5.378762
    15  H    1.097151   2.141143   2.777080   3.355198   4.407852
    16  H    3.435533   2.126763   1.096730   2.174570   2.873034
    17  H    2.836506   2.163227   1.097075   2.131480   2.567580
    18  H    4.867485   4.143429   2.668461   2.211434   1.096910
    19  H    4.368195   4.200866   2.916539   2.263256   1.097219
    20  H    5.012421   4.731803   3.485011   2.235632   1.096892
    21  H    2.749252   4.098671   4.341036   4.023780   4.773801
    22  H    2.801023   4.270924   4.970454   4.703854   5.829492
    23  H    3.536128   4.765032   4.973332   4.192945   5.014313
    24  H    2.106715   1.096854   2.138128   2.810777   4.323690
    25  H    4.431446   4.016298   3.338470   2.089817   2.734731
    26  H    4.547082   3.578669   2.655041   2.127497   2.624538
    27  H    3.703897   2.978158   2.811061   2.317816   3.585867
    28  H    2.859038   3.776691   4.663360   4.332790   5.789395
    29  H    3.480697   4.120011   4.457033   3.577636   4.822843
    30  H    2.801380   2.948935   3.604056   3.226633   4.767214
    31  O    6.777655   7.488332   6.787767   5.574253   5.050108
    32  O    7.449922   8.364471   7.975500   6.689932   6.596918
    33  N    6.721121   7.330823   6.965504   5.528921   5.703383
    34  C    6.227031   6.789431   6.212492   4.766758   4.644891
    35  C    6.754842   7.526532   6.988002   5.665927   5.435317
    36  H    6.848020   7.215552   6.447085   4.956390   4.542099
    37  H    5.156922   5.700841   5.149655   3.732012   3.775790
    38  H    7.721697   8.342596   7.938063   6.481784   6.529509
    39  H    6.410821   7.193489   7.020521   5.684144   6.068500
    40  H    7.356434   8.166614   7.514672   6.390181   5.859764
                   11         12         13         14         15
    11  C    0.000000
    12  C    4.705696   0.000000
    13  C    2.443321   3.377342   0.000000
    14  H    2.855425   4.593042   2.714875   0.000000
    15  H    2.685022   4.469479   3.473925   1.703768   0.000000
    16  H    5.367054   2.506970   4.631831   4.284980   3.765370
    17  H    4.502860   3.310409   4.599619   3.825980   2.684700
    18  H    5.779571   2.777540   5.521837   5.930209   4.983641
    19  H    4.697056   3.495430   5.181728   5.460557   4.210517
    20  H    5.117049   2.736563   4.985503   6.061559   5.210572
    21  H    1.096652   5.162507   3.414908   3.164676   2.426334
    22  H    1.097029   5.463073   2.676533   2.664278   2.961333
    23  H    1.096773   4.942955   2.751754   3.876349   3.721847
    24  H    4.249218   2.802798   2.882494   2.470668   3.016700
    25  H    4.806865   1.097052   3.505271   5.242353   5.127644
    26  H    5.716943   1.097627   4.440260   5.394205   5.166607
    27  H    4.824135   1.096750   3.005233   4.316481   4.599815
    28  H    2.542776   4.436528   1.096427   2.605578   3.719821
    29  H    2.708149   3.494497   1.097784   3.758430   4.303818
    30  H    3.447411   2.873079   1.097357   2.976530   3.861126
    31  O    5.032420   6.406561   6.323978   7.565765   6.646354
    32  O    5.233294   7.245284   6.332719   8.009737   7.510968
    33  N    4.998132   5.548743   4.971642   7.288350   7.150655
    34  C    4.613945   5.080124   4.985674   6.953696   6.491289
    35  C    4.797171   6.262209   5.805532   7.441105   6.811173
    36  H    5.503739   5.161434   5.706413   7.661116   7.109549
    37  H    3.727048   4.158472   4.066916   5.920645   5.438604
    38  H    5.906756   6.483894   5.966130   8.280833   8.117710
    39  H    4.463467   5.788782   4.578738   6.855511   6.838681
    40  H    5.483127   7.307372   7.025097   8.095734   7.119814
                   16         17         18         19         20
    16  H    0.000000
    17  H    1.704983   0.000000
    18  H    2.570839   2.660876   0.000000
    19  H    3.422532   2.538457   1.792487   0.000000
    20  H    3.788000   3.637913   1.784738   1.771408   0.000000
    21  H    5.437620   4.267194   5.712485   4.402016   5.168951
    22  H    6.010004   5.205996   6.731527   5.718005   6.163955
    23  H    6.006215   5.210826   6.047811   4.910090   5.070554
    24  H    2.472637   3.067534   4.540736   4.843970   5.007385
    25  H    3.547561   4.148742   3.162514   3.705080   2.493366
    26  H    2.317729   3.478881   2.424984   3.675915   2.868946
    27  H    2.878343   3.872316   3.800193   4.495435   3.812116
    28  H    5.469864   5.348558   6.543133   6.104082   6.035013
    29  H    5.216381   5.193767   5.652443   5.267811   4.787770
    30  H    4.171470   4.536029   5.334229   5.356788   5.014978
    31  O    7.593012   6.661135   6.031418   4.626554   4.515227
    32  O    8.841848   8.073482   7.640666   6.395214   5.999335
    33  N    7.660895   7.399394   6.648774   5.962335   4.962830
    34  C    6.926103   6.478523   5.623942   4.750099   3.895983
    35  C    7.806902   7.062661   6.460788   5.243278   4.810076
    36  H    7.030859   6.694171   5.402836   4.715020   3.618576
    37  H    5.904035   5.436166   4.802556   3.909246   3.182135
    38  H    8.614767   8.339093   7.451818   6.750708   5.713509
    39  H    7.805063   7.458163   7.067511   6.264397   5.472050
    40  H    8.357896   7.299333   6.829248   5.317575   5.399977
                   21         22         23         24         25
    21  H    0.000000
    22  H    1.732841   0.000000
    23  H    1.779463   1.786715   0.000000
    24  H    4.685617   4.527043   4.999546   0.000000
    25  H    5.341820   5.625906   4.795746   3.722668   0.000000
    26  H    6.077680   6.487139   5.982780   3.340128   1.758123
    27  H    5.437633   5.399142   5.121594   2.329466   1.725759
    28  H    3.555922   2.302559   2.912494   3.439297   4.589640
    29  H    3.725310   3.096343   2.561114   3.777728   3.270328
    30  H    4.326721   3.678803   3.806408   2.273968   3.151206
    31  O    4.844321   5.964229   4.310091   7.908077   5.849514
    32  O    5.378114   5.909482   4.211360   8.577344   6.540063
    33  N    5.571071   5.712503   4.044853   7.234152   4.644147
    34  C    4.944395   5.516832   3.762546   6.883134   4.264074
    35  C    4.892291   5.643997   3.878039   7.777768   5.571960
    36  H    5.773934   6.462495   4.742640   7.303292   4.270828
    37  H    4.073572   4.695381   3.022298   5.828127   3.466625
    38  H    6.430047   6.589106   4.904736   8.249122   5.535055
    39  H    5.105732   5.041785   3.444425   7.097042   4.995645
    40  H    5.175039   6.334403   4.765822   8.648752   6.794190
                   26         27         28         29         30
    26  H    0.000000
    27  H    1.750514   0.000000
    28  H    5.476468   3.965445   0.000000
    29  H    4.580805   3.248198   1.771597   0.000000
    30  H    3.841189   2.205387   1.813489   1.758498   0.000000
    31  O    7.049610   7.173997   6.935221   5.744916   7.057548
    32  O    8.064994   7.759998   6.713344   5.532406   7.173512
    33  N    6.358859   5.900139   5.538440   3.949856   5.534502
    34  C    5.816733   5.667960   5.690038   4.140228   5.569474
    35  C    7.015806   6.882926   6.355193   5.054519   6.562303
    36  H    5.722916   5.859929   6.515139   4.883990   6.143890
    37  H    4.961466   4.757305   4.843243   3.342913   4.646230
    38  H    7.239150   6.853631   6.485144   4.929510   6.527299
    39  H    6.706877   6.023658   4.971670   3.566761   5.277309
    40  H    7.959861   8.063588   7.544358   6.482409   7.827195
                   31         32         33         34         35
    31  O    0.000000
    32  O    2.271954   0.000000
    33  N    3.625275   2.674769   0.000000
    34  C    2.386392   2.410378   1.454049   0.000000
    35  C    1.357240   1.224505   2.403022   1.503694   0.000000
    36  H    2.648638   3.102872   2.094077   1.093438   2.132327
    37  H    2.672638   3.104578   2.095507   1.093326   2.131733
    38  H    3.857857   2.572796   1.019189   2.041185   2.595372
    39  H    3.874054   2.574853   1.019183   2.041204   2.595545
    40  H    0.981029   2.396482   4.348469   3.255741   1.948787
                   36         37         38         39         40
    36  H    0.000000
    37  H    1.789398   0.000000
    38  H    2.396044   2.944625   0.000000
    39  H    2.943654   2.397832   1.633311   0.000000
    40  H    3.552158   3.578936   4.459890   4.480559   0.000000
 Stoichiometry    C11H23N2O4(2)
 Framework group  C1[X(C11H23N2O4)]
 Deg. of freedom   114
 Full point group                 C1      NOp   1
 Largest Abelian subgroup         C1      NOp   1
 Largest concise Abelian subgroup C1      NOp   1
                         Standard orientation:                         
 ---------------------------------------------------------------------
 Center     Atomic      Atomic             Coordinates (Angstroms)
 Number     Number       Type             X           Y           Z
 ---------------------------------------------------------------------
      1          8           0       -4.722384   -0.296421   -0.773879
      2          1           0       -5.117080   -1.163948   -0.576359
      3          6           0       -1.115440   -1.303617    0.030792
      4          7           0       -0.563829    0.082587   -0.122148
      5          8           0        0.710092    0.240935    0.121023
      6          6           0       -2.561235   -1.335353   -0.570385
      7          6           0       -3.457146   -0.206062   -0.088478
      8          6           0       -2.852262    1.127343   -0.389037
      9          6           0       -1.433996    1.287767    0.141037
     10          6           0       -0.766628    2.568583   -0.563296
     11          6           0       -0.172595   -2.218590   -0.752551
     12          6           0       -1.619777    1.588171    1.604952
     13          6           0       -1.085900   -1.743700    1.463340
     14          1           0       -3.000804   -2.320508   -0.372682
     15          1           0       -2.530699   -1.317178   -1.666961
     16          1           0       -3.509669    1.918557   -0.008757
     17          1           0       -2.834700    1.342571   -1.464649
     18          1           0       -1.469474    3.407406   -0.488495
     19          1           0       -0.525058    2.384636   -1.617666
     20          1           0        0.164602    2.838844   -0.050519
     21          1           0       -0.208207   -2.000978   -1.826805
     22          1           0       -0.523875   -3.254817   -0.673125
     23          1           0        0.872230   -2.168267   -0.422826
     24          1           0       -3.559909   -0.340512    0.995243
     25          1           0       -0.608653    1.684085    2.019621
     26          1           0       -2.090987    2.574687    1.702589
     27          1           0       -2.135146    0.938180    2.322425
     28          1           0       -1.235668   -2.829787    1.475009
     29          1           0       -0.085801   -1.540610    1.867923
     30          1           0       -1.798131   -1.232169    2.123080
     31          8           0        3.793326    0.727014   -1.711786
     32          8           0        4.872645   -0.853732   -0.487823
     33          7           0        3.629246   -0.201387    1.788752
     34          6           0        3.253370    0.557062    0.606496
     35          6           0        4.049997    0.050093   -0.563745
     36          1           0        3.472294    1.616998    0.762107
     37          1           0        2.187351    0.424557    0.403009
     38          1           0        4.629039   -0.104778    1.961464
     39          1           0        3.456468   -1.194058    1.635497
     40          1           0        4.334194    0.396143   -2.460387
 ---------------------------------------------------------------------
 Rotational constants (GHZ):           0.8000729           0.2199136           0.2056817
 Standard basis: 6-311G(d,p) (5D, 7F)
 There are   461 symmetry adapted cartesian basis functions of A   symmetry.
 There are   444 symmetry adapted basis functions of A   symmetry.
   444 basis functions,   728 primitive gaussians,   461 cartesian basis functions
    68 alpha electrons       67 beta electrons
       nuclear repulsion energy      1358.8568393016 Hartrees.
 NAtoms=   40 NActive=   40 NUniq=   40 SFac= 1.00D+00 NAtFMM=   60 NAOKFM=F Big=F
 Integral buffers will be    131072 words long.
 Raffenetti 2 integral format.
 Two-electron integral symmetry is turned on.
 ------------------------------------------------------------------------------
 Polarizable Continuum Model (PCM)
 =================================
 Model                : PCM.
 Atomic radii         : UFF (Universal Force Field).
 Polarization charges : Total charges.
 Charge compensation  : None.
 Solution method      : On-the-fly selection.
 Cavity type          : Scaled VdW (van der Waals Surface) (Alpha=1.100).
 Cavity algorithm     : GePol (No added spheres)
                        Default sphere list used, NSphG=   40.
                        Lebedev-Laikov grids with approx.  5.0 points / Ang**2.
                        Smoothing algorithm: York/Karplus (Gamma=1.0000).
                        Polarization charges: spherical gaussians, with
                                              point-specific exponents (IZeta= 3).
                        Self-potential: point-specific (ISelfS= 7).
                        Self-field    : sphere-specific E.n sum rule (ISelfD= 2).
 1st derivatives      : Analytical E(r).r(x)/FMM algorithm (CHGder, D1EAlg=3).
                        Cavity 1st derivative terms included.
 Solvent              : Water, Eps=  78.355300 Eps(inf)=   1.777849
 ------------------------------------------------------------------------------
 One-electron integrals computed using PRISM.
 NBasis=   444 RedAO= T EigKep=  9.17D-04  NBF=   444
 NBsUse=   444 1.00D-06 EigRej= -1.00D+00 NBFU=   444
 ExpMin= 1.03D-01 ExpMax= 8.59D+03 ExpMxC= 1.30D+03 IAcc=3 IRadAn=         5 AccDes= 0.00D+00
 Harris functional with IExCor= 1009 and IRadAn=       5 diagonalized for initial guess.
 HarFok:  IExCor= 1009 AccDes= 0.00D+00 IRadAn=         5 IDoV= 1 UseB2=F ITyADJ=14
 ICtDFT=  3500011 ScaDFX=  1.000000  1.000000  1.000000  1.000000
 FoFCou: FMM=F IPFlag=           0 FMFlag=      100000 FMFlg1=           0
         NFxFlg=           0 DoJE=T BraDBF=F KetDBF=T FulRan=T
         wScrn=  0.000000 ICntrl=       500 IOpCl=  0 I1Cent=   200000004 NGrid=           0
         NMat0=    1 NMatS0=      1 NMatT0=    0 NMatD0=    1 NMtDS0=    0 NMtDT0=    0
 Petite list used in FoFCou.
 Initial guess <Sx>= 0.0000 <Sy>= 0.0000 <Sz>= 0.5000 <S**2>= 0.7500 S= 0.5000
 Requested convergence on RMS density matrix=1.00D-08 within 128 cycles.
 Requested convergence on MAX density matrix=1.00D-06.
 Requested convergence on             energy=1.00D-06.
 No special actions if energy rises.
 Inv3:  Mode=1 IEnd=    21147075.
 Iteration    1 A*A^-1 deviation from unit magnitude is 5.33D-15 for   2636.
 Iteration    1 A*A^-1 deviation from orthogonality  is 2.80D-15 for   2625   2046.
 Iteration    1 A^-1*A deviation from unit magnitude is 4.88D-15 for   2636.
 Iteration    1 A^-1*A deviation from orthogonality  is 3.02D-15 for   2652    738.
 Error on total polarization charges =  0.01113
 SCF Done:  E(UM062X) =  -843.220713612     A.U. after   15 cycles
            NFock= 15  Conv=0.47D-08     -V/T= 2.0038
 <Sx>= 0.0000 <Sy>= 0.0000 <Sz>= 0.5000 <S**2>= 0.7550 S= 0.5025
 <L.S>= 0.000000000000E+00
 Annihilation of the first spin contaminant:
 S**2 before annihilation     0.7550,   after     0.7500

 **********************************************************************

            Population analysis using the SCF density.

 **********************************************************************

 Orbital symmetries:
 Alpha Orbitals:
       Occupied  (A) (A) (A) (A) (A) (A) (A) (A) (A) (A) (A) (A)
                 (A) (A) (A) (A) (A) (A) (A) (A) (A) (A) (A) (A)
                 (A) (A) (A) (A) (A) (A) (A) (A) (A) (A) (A) (A)
                 (A) (A) (A) (A) (A) (A) (A) (A) (A) (A) (A) (A)
                 (A) (A) (A) (A) (A) (A) (A) (A) (A) (A) (A) (A)
                 (A) (A) (A) (A) (A) (A) (A) (A)
       Virtual   (A) (A) (A) (A) (A) (A) (A) (A) (A) (A) (A) (A)
                 (A) (A) (A) (A) (A) (A) (A) (A) (A) (A) (A) (A)
                 (A) (A) (A) (A) (A) (A) (A) (A) (A) (A) (A) (A)
                 (A) (A) (A) (A) (A) (A) (A) (A) (A) (A) (A) (A)
                 (A) (A) (A) (A) (A) (A) (A) (A) (A) (A) (A) (A)
                 (A) (A) (A) (A) (A) (A) (A) (A) (A) (A) (A) (A)
                 (A) (A) (A) (A) (A) (A) (A) (A) (A) (A) (A) (A)
                 (A) (A) (A) (A) (A) (A) (A) (A) (A) (A) (A) (A)
                 (A) (A) (A) (A) (A) (A) (A) (A) (A) (A) (A) (A)
                 (A) (A) (A) (A) (A) (A) (A) (A) (A) (A) (A) (A)
                 (A) (A) (A) (A) (A) (A) (A) (A) (A) (A) (A) (A)
                 (A) (A) (A) (A) (A) (A) (A) (A) (A) (A) (A) (A)
                 (A) (A) (A) (A) (A) (A) (A) (A) (A) (A) (A) (A)
                 (A) (A) (A) (A) (A) (A) (A) (A) (A) (A) (A) (A)
                 (A) (A) (A) (A) (A) (A) (A) (A) (A) (A) (A) (A)
                 (A) (A) (A) (A) (A) (A) (A) (A) (A) (A) (A) (A)
                 (A) (A) (A) (A) (A) (A) (A) (A) (A) (A) (A) (A)
                 (A) (A) (A) (A) (A) (A) (A) (A) (A) (A) (A) (A)
                 (A) (A) (A) (A) (A) (A) (A) (A) (A) (A) (A) (A)
                 (A) (A) (A) (A) (A) (A) (A) (A) (A) (A) (A) (A)
                 (A) (A) (A) (A) (A) (A) (A) (A) (A) (A) (A) (A)
                 (A) (A) (A) (A) (A) (A) (A) (A) (A) (A) (A) (A)
                 (A) (A) (A) (A) (A) (A) (A) (A) (A) (A) (A) (A)
                 (A) (A) (A) (A) (A) (A) (A) (A) (A) (A) (A) (A)
                 (A) (A) (A) (A) (A) (A) (A) (A) (A) (A) (A) (A)
                 (A) (A) (A) (A) (A) (A) (A) (A) (A) (A) (A) (A)
                 (A) (A) (A) (A) (A) (A) (A) (A) (A) (A) (A) (A)
                 (A) (A) (A) (A) (A) (A) (A) (A) (A) (A) (A) (A)
                 (A) (A) (A) (A) (A) (A) (A) (A) (A) (A) (A) (A)
                 (A) (A) (A) (A) (A) (A) (A) (A) (A) (A) (A) (A)
                 (A) (A) (A) (A) (A) (A) (A) (A) (A) (A) (A) (A)
                 (A) (A) (A) (A)
 Beta  Orbitals:
       Occupied  (A) (A) (A) (A) (A) (A) (A) (A) (A) (A) (A) (A)
                 (A) (A) (A) (A) (A) (A) (A) (A) (A) (A) (A) (A)
                 (A) (A) (A) (A) (A) (A) (A) (A) (A) (A) (A) (A)
                 (A) (A) (A) (A) (A) (A) (A) (A) (A) (A) (A) (A)
                 (A) (A) (A) (A) (A) (A) (A) (A) (A) (A) (A) (A)
                 (A) (A) (A) (A) (A) (A) (A)
       Virtual   (A) (A) (A) (A) (A) (A) (A) (A) (A) (A) (A) (A)
                 (A) (A) (A) (A) (A) (A) (A) (A) (A) (A) (A) (A)
                 (A) (A) (A) (A) (A) (A) (A) (A) (A) (A) (A) (A)
                 (A) (A) (A) (A) (A) (A) (A) (A) (A) (A) (A) (A)
                 (A) (A) (A) (A) (A) (A) (A) (A) (A) (A) (A) (A)
                 (A) (A) (A) (A) (A) (A) (A) (A) (A) (A) (A) (A)
                 (A) (A) (A) (A) (A) (A) (A) (A) (A) (A) (A) (A)
                 (A) (A) (A) (A) (A) (A) (A) (A) (A) (A) (A) (A)
                 (A) (A) (A) (A) (A) (A) (A) (A) (A) (A) (A) (A)
                 (A) (A) (A) (A) (A) (A) (A) (A) (A) (A) (A) (A)
                 (A) (A) (A) (A) (A) (A) (A) (A) (A) (A) (A) (A)
                 (A) (A) (A) (A) (A) (A) (A) (A) (A) (A) (A) (A)
                 (A) (A) (A) (A) (A) (A) (A) (A) (A) (A) (A) (A)
                 (A) (A) (A) (A) (A) (A) (A) (A) (A) (A) (A) (A)
                 (A) (A) (A) (A) (A) (A) (A) (A) (A) (A) (A) (A)
                 (A) (A) (A) (A) (A) (A) (A) (A) (A) (A) (A) (A)
                 (A) (A) (A) (A) (A) (A) (A) (A) (A) (A) (A) (A)
                 (A) (A) (A) (A) (A) (A) (A) (A) (A) (A) (A) (A)
                 (A) (A) (A) (A) (A) (A) (A) (A) (A) (A) (A) (A)
                 (A) (A) (A) (A) (A) (A) (A) (A) (A) (A) (A) (A)
                 (A) (A) (A) (A) (A) (A) (A) (A) (A) (A) (A) (A)
                 (A) (A) (A) (A) (A) (A) (A) (A) (A) (A) (A) (A)
                 (A) (A) (A) (A) (A) (A) (A) (A) (A) (A) (A) (A)
                 (A) (A) (A) (A) (A) (A) (A) (A) (A) (A) (A) (A)
                 (A) (A) (A) (A) (A) (A) (A) (A) (A) (A) (A) (A)
                 (A) (A) (A) (A) (A) (A) (A) (A) (A) (A) (A) (A)
                 (A) (A) (A) (A) (A) (A) (A) (A) (A) (A) (A) (A)
                 (A) (A) (A) (A) (A) (A) (A) (A) (A) (A) (A) (A)
                 (A) (A) (A) (A) (A) (A) (A) (A) (A) (A) (A) (A)
                 (A) (A) (A) (A) (A) (A) (A) (A) (A) (A) (A) (A)
                 (A) (A) (A) (A) (A) (A) (A) (A) (A) (A) (A) (A)
                 (A) (A) (A) (A) (A)
 The electronic state is 2-A.
 Alpha  occ. eigenvalues --  -19.66249 -19.64068 -19.62066 -19.61023 -14.85541
 Alpha  occ. eigenvalues --  -14.71523 -10.67185 -10.60324 -10.59913 -10.59547
 Alpha  occ. eigenvalues --  -10.54928 -10.54247 -10.53914 -10.53837 -10.53269
 Alpha  occ. eigenvalues --  -10.53181 -10.52997  -1.22593  -1.22263  -1.14227
 Alpha  occ. eigenvalues --   -1.13229  -0.99114  -0.98254  -0.93072  -0.87069
 Alpha  occ. eigenvalues --   -0.83356  -0.80101  -0.79100  -0.78512  -0.78179
 Alpha  occ. eigenvalues --   -0.69763  -0.68956  -0.68148  -0.63268  -0.60369
 Alpha  occ. eigenvalues --   -0.58699  -0.57959  -0.57284  -0.56965  -0.56055
 Alpha  occ. eigenvalues --   -0.55736  -0.53058  -0.51831  -0.51462  -0.50387
 Alpha  occ. eigenvalues --   -0.50208  -0.48356  -0.47937  -0.47758  -0.46404
 Alpha  occ. eigenvalues --   -0.46106  -0.45939  -0.44819  -0.44008  -0.43446
 Alpha  occ. eigenvalues --   -0.42974  -0.41797  -0.41735  -0.40564  -0.39965
 Alpha  occ. eigenvalues --   -0.39386  -0.38982  -0.38002  -0.35797  -0.35421
 Alpha  occ. eigenvalues --   -0.34586  -0.31008  -0.29091
 Alpha virt. eigenvalues --    0.05153   0.06439   0.07471   0.08030   0.08615
 Alpha virt. eigenvalues --    0.09271   0.09761   0.10701   0.11151   0.12344
 Alpha virt. eigenvalues --    0.12587   0.13611   0.14740   0.15172   0.16093
 Alpha virt. eigenvalues --    0.16653   0.16966   0.17301   0.17610   0.18420
 Alpha virt. eigenvalues --    0.19226   0.19723   0.20402   0.20882   0.21598
 Alpha virt. eigenvalues --    0.22049   0.22830   0.24171   0.24882   0.25469
 Alpha virt. eigenvalues --    0.25950   0.28031   0.28392   0.29037   0.29190
 Alpha virt. eigenvalues --    0.29840   0.30548   0.31777   0.32740   0.33647
 Alpha virt. eigenvalues --    0.33776   0.34858   0.36510   0.37477   0.37883
 Alpha virt. eigenvalues --    0.39746   0.40956   0.41831   0.42673   0.43075
 Alpha virt. eigenvalues --    0.43309   0.44031   0.45518   0.46605   0.48467
 Alpha virt. eigenvalues --    0.49244   0.49766   0.51060   0.51764   0.52223
 Alpha virt. eigenvalues --    0.52395   0.52899   0.53213   0.53992   0.54360
 Alpha virt. eigenvalues --    0.57005   0.57424   0.58901   0.59440   0.60558
 Alpha virt. eigenvalues --    0.61224   0.62059   0.62342   0.62524   0.63733
 Alpha virt. eigenvalues --    0.63831   0.64052   0.64597   0.64976   0.65810
 Alpha virt. eigenvalues --    0.66279   0.66832   0.67046   0.67332   0.67954
 Alpha virt. eigenvalues --    0.68258   0.68427   0.68861   0.70461   0.71091
 Alpha virt. eigenvalues --    0.71167   0.71946   0.72370   0.72956   0.73639
 Alpha virt. eigenvalues --    0.75780   0.76687   0.77472   0.78903   0.79786
 Alpha virt. eigenvalues --    0.80107   0.83503   0.84500   0.86899   0.87756
 Alpha virt. eigenvalues --    0.88680   0.90858   0.93910   0.94185   0.94642
 Alpha virt. eigenvalues --    0.96317   0.98519   0.98648   0.99865   1.00170
 Alpha virt. eigenvalues --    1.01547   1.01675   1.06016   1.07763   1.09049
 Alpha virt. eigenvalues --    1.09811   1.11267   1.11616   1.12417   1.15301
 Alpha virt. eigenvalues --    1.16497   1.18757   1.20375   1.24123   1.25214
 Alpha virt. eigenvalues --    1.25844   1.25961   1.28657   1.30452   1.31491
 Alpha virt. eigenvalues --    1.34204   1.37234   1.37390   1.39046   1.40136
 Alpha virt. eigenvalues --    1.41249   1.42549   1.43845   1.44113   1.45407
 Alpha virt. eigenvalues --    1.45882   1.46543   1.46964   1.48446   1.49225
 Alpha virt. eigenvalues --    1.49638   1.49996   1.51594   1.51680   1.51928
 Alpha virt. eigenvalues --    1.52216   1.53582   1.53776   1.54843   1.55884
 Alpha virt. eigenvalues --    1.56721   1.57624   1.58069   1.58122   1.59263
 Alpha virt. eigenvalues --    1.60557   1.62122   1.63502   1.64166   1.64351
 Alpha virt. eigenvalues --    1.65379   1.65813   1.66309   1.67742   1.68607
 Alpha virt. eigenvalues --    1.69160   1.70623   1.70889   1.71352   1.71747
 Alpha virt. eigenvalues --    1.73684   1.74532   1.75204   1.76721   1.77329
 Alpha virt. eigenvalues --    1.77693   1.78089   1.78384   1.79577   1.79952
 Alpha virt. eigenvalues --    1.81331   1.82009   1.83919   1.85307   1.85961
 Alpha virt. eigenvalues --    1.86037   1.87816   1.88484   1.89367   1.90468
 Alpha virt. eigenvalues --    1.90993   1.91546   1.92604   1.94200   1.95259
 Alpha virt. eigenvalues --    1.96424   1.98326   1.98602   2.00906   2.02570
 Alpha virt. eigenvalues --    2.03946   2.05411   2.06981   2.07889   2.10807
 Alpha virt. eigenvalues --    2.11611   2.12913   2.13828   2.15032   2.16003
 Alpha virt. eigenvalues --    2.18043   2.18893   2.20263   2.21131   2.22431
 Alpha virt. eigenvalues --    2.22700   2.24196   2.26119   2.26692   2.27807
 Alpha virt. eigenvalues --    2.29074   2.32668   2.34380   2.35452   2.37556
 Alpha virt. eigenvalues --    2.38913   2.39429   2.42251   2.43674   2.45231
 Alpha virt. eigenvalues --    2.46038   2.47055   2.47502   2.47869   2.48706
 Alpha virt. eigenvalues --    2.49442   2.50851   2.52434   2.52926   2.54022
 Alpha virt. eigenvalues --    2.54622   2.55491   2.55646   2.56300   2.57552
 Alpha virt. eigenvalues --    2.58287   2.59295   2.59566   2.60576   2.61517
 Alpha virt. eigenvalues --    2.64499   2.65300   2.65735   2.66944   2.67553
 Alpha virt. eigenvalues --    2.68543   2.68813   2.70159   2.70822   2.73447
 Alpha virt. eigenvalues --    2.74704   2.76044   2.77234   2.78287   2.78822
 Alpha virt. eigenvalues --    2.81746   2.84305   2.86205   2.87324   2.87513
 Alpha virt. eigenvalues --    2.88508   2.91068   2.92588   2.92952   2.94009
 Alpha virt. eigenvalues --    2.94979   2.95823   2.97384   2.98291   2.99553
 Alpha virt. eigenvalues --    3.03322   3.04015   3.05527   3.07678   3.11827
 Alpha virt. eigenvalues --    3.12689   3.14353   3.15587   3.16639   3.20060
 Alpha virt. eigenvalues --    3.20891   3.23385   3.24585   3.25195   3.26257
 Alpha virt. eigenvalues --    3.31083   3.31921   3.38694   3.40262   3.40498
 Alpha virt. eigenvalues --    3.42668   3.44410   3.51163   3.53863   3.55073
 Alpha virt. eigenvalues --    3.62519   3.69352   3.74465   3.76682   3.77499
 Alpha virt. eigenvalues --    3.79518   3.80656   3.80830   3.81513   3.82054
 Alpha virt. eigenvalues --    3.83865   3.84701   3.85676   3.86883   3.89208
 Alpha virt. eigenvalues --    3.89977   3.95568   3.96167   3.97394   4.05528
 Alpha virt. eigenvalues --    4.07615   4.17817   4.20992   4.24006   4.30591
 Alpha virt. eigenvalues --    4.34769   4.35417   4.40385   4.78966   4.80813
 Alpha virt. eigenvalues --    4.88457   4.92409   4.93604   5.01455   5.02237
 Alpha virt. eigenvalues --    5.03889   5.15535   5.18471   5.31592   5.37572
 Alpha virt. eigenvalues --    5.64254   5.71252   5.82623   5.98210  23.77833
 Alpha virt. eigenvalues --   23.80237  23.87257  23.88159  23.94782  23.96413
 Alpha virt. eigenvalues --   23.97661  23.99123  24.02195  24.03574  24.06875
 Alpha virt. eigenvalues --   35.52244  35.67917  49.95551  49.98561  50.03326
 Alpha virt. eigenvalues --   50.08522
  Beta  occ. eigenvalues --  -19.66248 -19.63060 -19.62065 -19.61023 -14.84691
  Beta  occ. eigenvalues --  -14.71521 -10.67184 -10.60348 -10.59935 -10.59548
  Beta  occ. eigenvalues --  -10.54934 -10.54245 -10.53912 -10.53827 -10.53235
  Beta  occ. eigenvalues --  -10.53142 -10.52986  -1.22271  -1.19596  -1.14222
  Beta  occ. eigenvalues --   -1.13228  -0.98472  -0.97536  -0.92876  -0.86220
  Beta  occ. eigenvalues --   -0.82118  -0.79980  -0.78931  -0.78465  -0.78062
  Beta  occ. eigenvalues --   -0.69503  -0.68413  -0.68073  -0.62393  -0.60098
  Beta  occ. eigenvalues --   -0.58318  -0.57952  -0.56909  -0.56636  -0.55633
  Beta  occ. eigenvalues --   -0.53064  -0.52242  -0.51481  -0.51451  -0.50192
  Beta  occ. eigenvalues --   -0.50088  -0.48124  -0.47628  -0.46968  -0.46296
  Beta  occ. eigenvalues --   -0.45800  -0.45730  -0.44110  -0.43590  -0.43030
  Beta  occ. eigenvalues --   -0.42004  -0.41699  -0.40897  -0.39790  -0.39676
  Beta  occ. eigenvalues --   -0.39125  -0.37914  -0.37455  -0.35706  -0.34688
  Beta  occ. eigenvalues --   -0.33937  -0.30982
  Beta virt. eigenvalues --   -0.04068   0.05157   0.06506   0.07527   0.08065
  Beta virt. eigenvalues --    0.08624   0.09274   0.09797   0.10813   0.11188
  Beta virt. eigenvalues --    0.12355   0.12607   0.13617   0.14783   0.15153
  Beta virt. eigenvalues --    0.16106   0.16795   0.16993   0.17369   0.17785
  Beta virt. eigenvalues --    0.18504   0.19404   0.19775   0.20470   0.21208
  Beta virt. eigenvalues --    0.21615   0.22318   0.22944   0.24581   0.24964
  Beta virt. eigenvalues --    0.25514   0.26252   0.28153   0.28553   0.29180
  Beta virt. eigenvalues --    0.29374   0.30108   0.30672   0.31805   0.32781
  Beta virt. eigenvalues --    0.33837   0.34258   0.35003   0.36562   0.37538
  Beta virt. eigenvalues --    0.38096   0.39902   0.41091   0.42122   0.42869
  Beta virt. eigenvalues --    0.43088   0.43399   0.44259   0.45634   0.46656
  Beta virt. eigenvalues --    0.48564   0.49373   0.49814   0.51123   0.51804
  Beta virt. eigenvalues --    0.52325   0.52481   0.53024   0.53259   0.54148
  Beta virt. eigenvalues --    0.54510   0.57057   0.57608   0.58935   0.59525
  Beta virt. eigenvalues --    0.60856   0.61231   0.62104   0.62403   0.62579
  Beta virt. eigenvalues --    0.63823   0.63942   0.64183   0.64649   0.65015
  Beta virt. eigenvalues --    0.65910   0.66391   0.66904   0.67094   0.67370
  Beta virt. eigenvalues --    0.68001   0.68291   0.68499   0.68882   0.70665
  Beta virt. eigenvalues --    0.71149   0.71198   0.72001   0.72469   0.73028
  Beta virt. eigenvalues --    0.73752   0.75835   0.76839   0.77549   0.78977
  Beta virt. eigenvalues --    0.79808   0.80197   0.83863   0.85416   0.87206
  Beta virt. eigenvalues --    0.87943   0.88737   0.91551   0.94225   0.94544
  Beta virt. eigenvalues --    0.94960   0.96468   0.98588   0.98807   1.00017
  Beta virt. eigenvalues --    1.00359   1.01735   1.02168   1.06272   1.08327
  Beta virt. eigenvalues --    1.09248   1.09992   1.11385   1.11706   1.12537
  Beta virt. eigenvalues --    1.15338   1.16678   1.18840   1.20604   1.24252
  Beta virt. eigenvalues --    1.25253   1.25928   1.26000   1.28710   1.30553
  Beta virt. eigenvalues --    1.31737   1.34479   1.37310   1.37912   1.39142
  Beta virt. eigenvalues --    1.40186   1.41321   1.42625   1.44025   1.44194
  Beta virt. eigenvalues --    1.45494   1.45903   1.46578   1.47051   1.48560
  Beta virt. eigenvalues --    1.49234   1.49711   1.50067   1.51617   1.51714
  Beta virt. eigenvalues --    1.51989   1.52255   1.53634   1.53824   1.54890
  Beta virt. eigenvalues --    1.55972   1.56758   1.57648   1.58102   1.58186
  Beta virt. eigenvalues --    1.59286   1.60630   1.62210   1.63629   1.64204
  Beta virt. eigenvalues --    1.64409   1.65421   1.65912   1.66391   1.67784
  Beta virt. eigenvalues --    1.68771   1.69238   1.70687   1.71023   1.71386
  Beta virt. eigenvalues --    1.71847   1.73707   1.74596   1.75293   1.76812
  Beta virt. eigenvalues --    1.77374   1.77818   1.78121   1.78408   1.79632
  Beta virt. eigenvalues --    1.79984   1.81392   1.82174   1.84170   1.85418
  Beta virt. eigenvalues --    1.86144   1.86341   1.87898   1.88639   1.89491
  Beta virt. eigenvalues --    1.90667   1.91030   1.91674   1.92668   1.94238
  Beta virt. eigenvalues --    1.95304   1.96496   1.98352   1.98656   2.00908
  Beta virt. eigenvalues --    2.02590   2.04123   2.05438   2.07182   2.08548
  Beta virt. eigenvalues --    2.10881   2.11728   2.12975   2.13998   2.15060
  Beta virt. eigenvalues --    2.16083   2.18111   2.18953   2.20358   2.21308
  Beta virt. eigenvalues --    2.22526   2.22998   2.24362   2.26330   2.26766
  Beta virt. eigenvalues --    2.27952   2.29691   2.32907   2.34536   2.35552
  Beta virt. eigenvalues --    2.37636   2.39024   2.39576   2.42264   2.43792
  Beta virt. eigenvalues --    2.45382   2.46155   2.47107   2.47560   2.47945
  Beta virt. eigenvalues --    2.48793   2.49496   2.50951   2.52573   2.53076
  Beta virt. eigenvalues --    2.54063   2.54734   2.55570   2.55701   2.56383
  Beta virt. eigenvalues --    2.57648   2.58375   2.59352   2.59623   2.60691
  Beta virt. eigenvalues --    2.61565   2.64507   2.65401   2.65828   2.67054
  Beta virt. eigenvalues --    2.67666   2.68594   2.68942   2.70211   2.70882
  Beta virt. eigenvalues --    2.73587   2.74760   2.76108   2.77305   2.78370
  Beta virt. eigenvalues --    2.78933   2.81879   2.84501   2.86332   2.87619
  Beta virt. eigenvalues --    2.87696   2.88933   2.91928   2.92850   2.93245
  Beta virt. eigenvalues --    2.94090   2.95373   2.97046   2.97395   2.98554
  Beta virt. eigenvalues --    3.00085   3.03621   3.04637   3.05881   3.07745
  Beta virt. eigenvalues --    3.11839   3.12856   3.14407   3.15767   3.16678
  Beta virt. eigenvalues --    3.20265   3.21290   3.23409   3.24900   3.25314
  Beta virt. eigenvalues --    3.26265   3.31951   3.32650   3.38825   3.40300
  Beta virt. eigenvalues --    3.40531   3.42810   3.44956   3.51441   3.53992
  Beta virt. eigenvalues --    3.55084   3.62810   3.69483   3.74503   3.76827
  Beta virt. eigenvalues --    3.77563   3.79582   3.80703   3.80900   3.81517
  Beta virt. eigenvalues --    3.82138   3.83928   3.84749   3.85736   3.86922
  Beta virt. eigenvalues --    3.89672   3.90033   3.95574   3.96212   3.98617
  Beta virt. eigenvalues --    4.06506   4.08421   4.17841   4.21115   4.23985
  Beta virt. eigenvalues --    4.30603   4.34808   4.35835   4.40397   4.79203
  Beta virt. eigenvalues --    4.81398   4.88841   4.92424   4.93851   5.02207
  Beta virt. eigenvalues --    5.02363   5.07506   5.15611   5.19528   5.31605
  Beta virt. eigenvalues --    5.37576   5.64255   5.71254   5.82623   5.98440
  Beta virt. eigenvalues --   23.77806  23.80236  23.87231  23.88151  23.94785
  Beta virt. eigenvalues --   23.96410  23.97670  23.99127  24.02204  24.03581
  Beta virt. eigenvalues --   24.06882  35.51707  35.67917  49.95542  49.97797
  Beta virt. eigenvalues --   50.03304  50.08522
          Condensed to atoms (all electrons):
               1          2          3          4          5          6
     1  O    7.998927   0.316936   0.005768   0.000016   0.000000  -0.049688
     2  H    0.316936   0.434398  -0.000272   0.000007   0.000000  -0.001078
     3  C    0.005768  -0.000272   5.567215   0.191050  -0.072750   0.213258
     4  N    0.000016   0.000007   0.191050   6.844123   0.175520  -0.045698
     5  O    0.000000   0.000000  -0.072750   0.175520   8.345646   0.004881
     6  C   -0.049688  -0.001078   0.213258  -0.045698   0.004881   5.325366
     7  C    0.252097  -0.038707  -0.045025  -0.010703   0.000186   0.316146
     8  C   -0.050724   0.009435   0.003678  -0.030382   0.005092  -0.096051
     9  C    0.003343  -0.000659  -0.097032   0.200383  -0.075758   0.010639
    10  C   -0.000087   0.000023   0.007163  -0.058923   0.005480  -0.001950
    11  C   -0.000125  -0.000001   0.332053  -0.070690  -0.001149  -0.059970
    12  C   -0.000207   0.000028  -0.002487  -0.061380  -0.005214  -0.000245
    13  C   -0.000044   0.000014   0.293701  -0.068648  -0.005988  -0.090102
    14  H   -0.001116   0.004677  -0.026924   0.004542  -0.000124   0.405063
    15  H    0.009284  -0.001369  -0.027240  -0.001153  -0.000192   0.397462
    16  H    0.004332  -0.000304  -0.001246   0.003702  -0.000098   0.011439
    17  H    0.004957  -0.000306   0.001798  -0.000051  -0.000246  -0.009125
    18  H   -0.000014   0.000001  -0.000070   0.004473   0.000453  -0.000033
    19  H   -0.000017   0.000000  -0.000037   0.001357   0.000154   0.000107
    20  H    0.000003  -0.000001   0.000184  -0.003851   0.006522  -0.000067
    21  H   -0.000043   0.000003  -0.037422   0.001008  -0.000428  -0.007572
    22  H   -0.000008   0.000001  -0.040023   0.006085   0.000378  -0.003600
    23  H    0.000004  -0.000001  -0.030835  -0.007967   0.011507   0.007147
    24  H   -0.025320  -0.004800   0.003914  -0.000738  -0.000059  -0.067482
    25  H    0.000005  -0.000004  -0.000155  -0.007716   0.011132  -0.000095
    26  H   -0.000044   0.000001  -0.000231   0.005692  -0.000240  -0.000127
    27  H   -0.000047   0.000023   0.000808  -0.001454  -0.000152  -0.000535
    28  H   -0.000010   0.000002  -0.038435   0.006465  -0.000228  -0.004821
    29  H    0.000007  -0.000002  -0.038487  -0.011159   0.012970   0.009767
    30  H   -0.000142  -0.000017  -0.030564  -0.000561  -0.000261  -0.008106
    31  O    0.000000   0.000000   0.000001  -0.000019  -0.000282   0.000000
    32  O    0.000000   0.000000   0.000000   0.000000   0.000008   0.000000
    33  N    0.000000   0.000000   0.000025  -0.000077   0.000597   0.000000
    34  C    0.000000   0.000000  -0.000477   0.006654  -0.062457   0.000003
    35  C    0.000000   0.000000  -0.000002  -0.000100   0.001832   0.000000
    36  H    0.000000   0.000000  -0.000008  -0.000011  -0.000438   0.000001
    37  H    0.000000   0.000000   0.000575  -0.008085   0.019994  -0.000039
    38  H    0.000000   0.000000  -0.000004   0.000016  -0.000279   0.000000
    39  H    0.000000   0.000000   0.000013  -0.000049   0.000979   0.000002
    40  H    0.000000   0.000000   0.000001  -0.000003   0.000031   0.000000
               7          8          9         10         11         12
     1  O    0.252097  -0.050724   0.003343  -0.000087  -0.000125  -0.000207
     2  H   -0.038707   0.009435  -0.000659   0.000023  -0.000001   0.000028
     3  C   -0.045025   0.003678  -0.097032   0.007163   0.332053  -0.002487
     4  N   -0.010703  -0.030382   0.200383  -0.058923  -0.070690  -0.061380
     5  O    0.000186   0.005092  -0.075758   0.005480  -0.001149  -0.005214
     6  C    0.316146  -0.096051   0.010639  -0.001950  -0.059970  -0.000245
     7  C    4.974960   0.280503  -0.043605   0.008158   0.006989  -0.005839
     8  C    0.280503   5.361062   0.209284  -0.067532  -0.002774  -0.132655
     9  C   -0.043605   0.209284   5.534263   0.348044   0.009144   0.290151
    10  C    0.008158  -0.067532   0.348044   4.993768  -0.000309  -0.080757
    11  C    0.006989  -0.002774   0.009144  -0.000309   5.027380  -0.000617
    12  C   -0.005839  -0.132655   0.290151  -0.080757  -0.000617   5.125913
    13  C   -0.005937   0.002195  -0.005613  -0.000528  -0.097371  -0.001105
    14  H   -0.029095   0.009551  -0.000695   0.000064  -0.004880  -0.000042
    15  H   -0.044715  -0.009379   0.001170  -0.000406  -0.006190   0.000347
    16  H   -0.036283   0.414232  -0.025509  -0.005228   0.000099  -0.012113
    17  H   -0.031829   0.403420  -0.042770  -0.008398  -0.000252   0.012709
    18  H    0.000281  -0.002516  -0.037811   0.406409   0.000013  -0.004611
    19  H   -0.000357  -0.005274  -0.031933   0.400805  -0.000027   0.007456
    20  H   -0.000387   0.007821  -0.033643   0.401874  -0.000011  -0.004629
    21  H   -0.000133   0.000208  -0.000045  -0.000037   0.403049   0.000042
    22  H    0.000014  -0.000016  -0.000145   0.000015   0.409248   0.000018
    23  H   -0.000294  -0.000098   0.000685  -0.000045   0.403974  -0.000014
    24  H    0.424242  -0.064043   0.001772  -0.000291  -0.000162   0.005069
    25  H   -0.000350   0.014271  -0.048782  -0.010704  -0.000131   0.398686
    26  H    0.000400  -0.008223  -0.035379  -0.007137   0.000027   0.408105
    27  H    0.001154  -0.005673  -0.020381   0.005433  -0.000049   0.407327
    28  H    0.000271  -0.000008  -0.000236   0.000024  -0.008417   0.000147
    29  H   -0.000276  -0.000052   0.000246  -0.000158  -0.010624   0.000249
    30  H    0.002285  -0.001543   0.000866  -0.000021   0.007995  -0.002017
    31  O    0.000000   0.000000  -0.000001  -0.000010   0.000001   0.000000
    32  O    0.000000   0.000000   0.000000   0.000000  -0.000014   0.000000
    33  N    0.000000   0.000000   0.000002   0.000004  -0.000018  -0.000013
    34  C    0.000001   0.000005  -0.000615  -0.000120  -0.000154   0.000011
    35  C    0.000000   0.000000   0.000008   0.000005   0.000058  -0.000001
    36  H    0.000000  -0.000001   0.000028   0.000043  -0.000001   0.000006
    37  H   -0.000005  -0.000019   0.000568  -0.000146   0.000101  -0.000010
    38  H    0.000000   0.000000  -0.000002  -0.000001   0.000001   0.000001
    39  H    0.000000   0.000000   0.000009   0.000000  -0.000022  -0.000001
    40  H    0.000000   0.000000  -0.000001   0.000002   0.000005   0.000000
              13         14         15         16         17         18
     1  O   -0.000044  -0.001116   0.009284   0.004332   0.004957  -0.000014
     2  H    0.000014   0.004677  -0.001369  -0.000304  -0.000306   0.000001
     3  C    0.293701  -0.026924  -0.027240  -0.001246   0.001798  -0.000070
     4  N   -0.068648   0.004542  -0.001153   0.003702  -0.000051   0.004473
     5  O   -0.005988  -0.000124  -0.000192  -0.000098  -0.000246   0.000453
     6  C   -0.090102   0.405063   0.397462   0.011439  -0.009125  -0.000033
     7  C   -0.005937  -0.029095  -0.044715  -0.036283  -0.031829   0.000281
     8  C    0.002195   0.009551  -0.009379   0.414232   0.403420  -0.002516
     9  C   -0.005613  -0.000695   0.001170  -0.025509  -0.042770  -0.037811
    10  C   -0.000528   0.000064  -0.000406  -0.005228  -0.008398   0.406409
    11  C   -0.097371  -0.004880  -0.006190   0.000099  -0.000252   0.000013
    12  C   -0.001105  -0.000042   0.000347  -0.012113   0.012709  -0.004611
    13  C    5.071537  -0.003539   0.007978  -0.000049   0.000191   0.000012
    14  H   -0.003539   0.509387  -0.034182  -0.000362  -0.000350   0.000001
    15  H    0.007978  -0.034182   0.525753  -0.000500   0.005641   0.000001
    16  H   -0.000049  -0.000362  -0.000500   0.508764  -0.032597   0.001534
    17  H    0.000191  -0.000350   0.005641  -0.032597   0.521024  -0.001406
    18  H    0.000012   0.000001   0.000001   0.001534  -0.001406   0.522712
    19  H    0.000039   0.000003   0.000029  -0.000035   0.003157  -0.020970
    20  H   -0.000001  -0.000001   0.000014  -0.000226   0.000484  -0.024598
    21  H    0.009815   0.000147   0.002975   0.000005   0.000008   0.000001
    22  H   -0.008624   0.002192  -0.000671  -0.000001   0.000005   0.000000
    23  H   -0.005679  -0.000294   0.000411  -0.000003   0.000019  -0.000001
    24  H    0.002320  -0.009550   0.010420  -0.009637   0.008491  -0.000033
    25  H    0.000558   0.000001   0.000030   0.000590  -0.000566  -0.000142
    26  H    0.000205  -0.000005   0.000011   0.000896   0.000214   0.001638
    27  H   -0.003001   0.000032  -0.000056  -0.000444  -0.000070  -0.000105
    28  H    0.410116   0.001986  -0.000089  -0.000007   0.000000  -0.000001
    29  H    0.402989   0.000048  -0.000278   0.000000   0.000020  -0.000002
    30  H    0.405708  -0.000448   0.000065   0.000034  -0.000013   0.000002
    31  O    0.000000   0.000000   0.000000   0.000000   0.000000   0.000000
    32  O    0.000000   0.000000   0.000000   0.000000   0.000000   0.000000
    33  N   -0.000116   0.000000   0.000000   0.000000   0.000000   0.000000
    34  C    0.000004  -0.000001   0.000000  -0.000001   0.000000  -0.000009
    35  C   -0.000010   0.000000   0.000000   0.000000   0.000000   0.000000
    36  H   -0.000002   0.000000   0.000000   0.000000   0.000000  -0.000004
    37  H    0.000105   0.000005  -0.000005   0.000004  -0.000004   0.000040
    38  H    0.000005   0.000000   0.000000   0.000000   0.000000   0.000000
    39  H    0.000023   0.000000   0.000000   0.000000   0.000000   0.000000
    40  H    0.000000   0.000000   0.000000   0.000000   0.000000   0.000000
              19         20         21         22         23         24
     1  O   -0.000017   0.000003  -0.000043  -0.000008   0.000004  -0.025320
     2  H    0.000000  -0.000001   0.000003   0.000001  -0.000001  -0.004800
     3  C   -0.000037   0.000184  -0.037422  -0.040023  -0.030835   0.003914
     4  N    0.001357  -0.003851   0.001008   0.006085  -0.007967  -0.000738
     5  O    0.000154   0.006522  -0.000428   0.000378   0.011507  -0.000059
     6  C    0.000107  -0.000067  -0.007572  -0.003600   0.007147  -0.067482
     7  C   -0.000357  -0.000387  -0.000133   0.000014  -0.000294   0.424242
     8  C   -0.005274   0.007821   0.000208  -0.000016  -0.000098  -0.064043
     9  C   -0.031933  -0.033643  -0.000045  -0.000145   0.000685   0.001772
    10  C    0.400805   0.401874  -0.000037   0.000015  -0.000045  -0.000291
    11  C   -0.000027  -0.000011   0.403049   0.409248   0.403974  -0.000162
    12  C    0.007456  -0.004629   0.000042   0.000018  -0.000014   0.005069
    13  C    0.000039  -0.000001   0.009815  -0.008624  -0.005679   0.002320
    14  H    0.000003  -0.000001   0.000147   0.002192  -0.000294  -0.009550
    15  H    0.000029   0.000014   0.002975  -0.000671   0.000411   0.010420
    16  H   -0.000035  -0.000226   0.000005  -0.000001  -0.000003  -0.009637
    17  H    0.003157   0.000484   0.000008   0.000005   0.000019   0.008491
    18  H   -0.020970  -0.024598   0.000001   0.000000  -0.000001  -0.000033
    19  H    0.513328  -0.024887   0.000090   0.000002  -0.000016  -0.000020
    20  H   -0.024887   0.515809  -0.000006  -0.000001  -0.000009   0.000037
    21  H    0.000090  -0.000006   0.529546  -0.026668  -0.024300  -0.000052
    22  H    0.000002  -0.000001  -0.026668   0.530457  -0.022617  -0.000012
    23  H   -0.000016  -0.000009  -0.024300  -0.022617   0.506087   0.000043
    24  H   -0.000020   0.000037  -0.000052  -0.000012   0.000043   0.561903
    25  H   -0.000088   0.003837  -0.000003  -0.000003  -0.000060   0.000013
    26  H    0.000235  -0.000724  -0.000003  -0.000001   0.000004   0.000424
    27  H   -0.000253  -0.000003  -0.000003   0.000004   0.000003  -0.000493
    28  H   -0.000002   0.000001   0.000244   0.001774  -0.000681   0.000090
    29  H   -0.000003  -0.000052  -0.000074  -0.000181   0.002432  -0.000042
    30  H   -0.000008   0.000009  -0.000451   0.000154   0.000006   0.002706
    31  O    0.000098   0.000012   0.000038   0.000000  -0.000085   0.000000
    32  O    0.000000   0.000000  -0.000004   0.000000   0.000225   0.000000
    33  N    0.000001  -0.000026   0.000000   0.000000   0.000070   0.000000
    34  C   -0.000035   0.000945  -0.000024  -0.000011   0.000494   0.000000
    35  C    0.000012  -0.000072   0.000021  -0.000002   0.000169   0.000000
    36  H   -0.000007   0.000238  -0.000002   0.000000   0.000093   0.000000
    37  H    0.000077  -0.000329   0.000033   0.000059  -0.000906   0.000000
[...]
 73,0.00002150,0.00000344,0.00000160,-0.00000592,-0.00000136,-0.0000026
 4,-0.00001260,0.00000143,-0.00002949,0.00000166,-0.00000542,-0.0000316
 0,-0.00002485,-0.00000049,0.00006705,0.00007818,0.00000137,0.00000400,
 0.00000028,0.00000794,-0.00000519,-0.00000480,-0.00002774,0.00001179,0
 .00002476,0.00000286,-0.00000050,-0.00001040,-0.00003911,-0.00004418,-
 0.00003223,0.00015352,0.00001960,0.00002637,-0.00002694,-0.00005206,-0
 .00000254,0.00020974,0.00103429,0.00058824,0.00199824,0.00009210,0.000
 59115,-0.00076536,0.00494485,0.00063198,0.00275743,-0.27882500,-0.0964
 6543,-0.00255989,-0.01074625,-0.00509937,-0.00353582,0.29756415,0.0000
 1244,0.00001864,0.00000715,-0.00000233,-0.00000091,0.00000027,-0.00002
 964,-0.00004635,-0.00013953,-0.00011315,0.00016142,-0.00016480,-0.0001
 7488,0.00078594,-0.00006376,0.00000191,-0.00001700,0.00003808,-0.00002
 749,-0.00001746,-0.00001024,0.00001539,-0.00001264,-0.00003418,0.00007
 911,-0.00008474,0.00012724,0.00002838,0.00001014,0.00000040,0.00010238
 ,0.00003500,0.00004571,-0.00000459,0.00005059,-0.00004690,-0.00001514,
 0.00000061,0.00011045,0.00000907,0.00001352,0.00000625,-0.00000175,0.0
 0000365,-0.00000365,0.00000742,0.00001759,-0.00000048,-0.00000311,0.00
 000161,0.00000347,-0.00000384,0.00000482,-0.00001353,-0.00000171,-0.00
 000093,0.00000412,0.00000008,0.00000042,0.00000963,-0.00001369,-0.0000
 4237,0.00000117,-0.00000885,0.00000932,0.00001152,-0.00006803,-0.00003
 239,-0.00008666,0.00000081,-0.00000209,0.00000059,-0.00000904,-0.00000
 104,0.00000971,0.00002113,-0.00001097,-0.00001529,0.00000164,0.0000006
 2,0.00000468,0.00004226,0.00004331,0.00003017,-0.00004414,0.00003422,-
 0.00014151,0.00000173,-0.00002009,0.00000447,-0.00173686,0.00048666,-0
 .00075556,-0.00003747,0.00010313,0.00115019,-0.00388076,-0.03137934,-0
 .01792038,-0.00214229,-0.08976294,-0.08279378,0.00485009,-0.00314167,-
 0.00179363,0.00527590,0.10521161,0.09882011,-0.00004789,-0.00007281,-0
 .00001690,0.00000976,0.00000461,-0.00000128,0.00013067,0.00017107,0.00
 046814,0.00033585,-0.00073697,0.00012758,0.00014033,-0.00081418,-0.000
 04289,-0.00007695,0.00007744,-0.00008623,0.00008665,0.00005352,0.00001
 748,-0.00005042,0.00004489,0.00010425,-0.00015636,0.00026483,-0.000387
 94,-0.00009684,-0.00002402,0.00001952,-0.00003637,0.00001806,-0.000055
 80,0.00001752,-0.00018006,0.00012000,-0.00010683,-0.00025517,-0.000215
 58,-0.00003152,-0.00005368,-0.00002486,0.00001233,0.00001284,0.0000067
 7,-0.00002416,-0.00005668,0.00000268,0.00001047,-0.00000056,-0.0000115
 7,0.00001290,-0.00001628,0.00004627,0.00000339,0.00000317,-0.00001655,
 -0.00000297,0.00000301,-0.00004891,-0.00001254,-0.00002566,0.00001143,
 0.00001375,-0.00001340,-0.00005345,-0.00010028,0.00002956,0.00012077,-
 0.00000680,0.00000463,0.00000283,0.00008857,0.00006325,-0.00008203,-0.
 00006954,0.00005466,0.00005368,-0.00001584,-0.00000538,-0.00001734,-0.
 00006592,0.00007290,-0.00002137,0.00004680,-0.00017613,-0.00032031,-0.
 00001107,0.00002319,0.00001952,0.00055469,0.00211845,-0.00181877,-0.00
 325672,0.00587549,-0.00038184,0.01014794,0.01318241,-0.01232565,-0.130
 46012,-0.09035379,0.08847379,-0.01862574,-0.02356600,0.02106171,0.0009
 2767,0.00110443,-0.00139878,0.14023341,0.00006644,0.00011583,0.0000023
 0,-0.00001631,-0.00001138,-0.00000032,0.00017063,-0.00023927,-0.000364
 16,-0.00051575,-0.00052855,0.00020566,0.00063657,-0.00200750,0.0002787
 1,-0.00001457,-0.00005234,0.00003329,-0.00009719,-0.00007428,0.0000189
 0,0.00002825,-0.00004477,-0.00008581,-0.00001202,-0.00022303,0.0003428
 7,0.00009679,0.00002852,-0.00003062,0.00003878,-0.00003818,0.00002831,
 0.00002184,0.00006111,-0.00023436,-0.00004621,-0.00030869,0.00012401,0
 .00002888,0.00003700,0.00002212,-0.00000440,0.00003653,-0.00001210,0.0
 0002486,0.00004676,-0.00001275,-0.00000981,0.00000560,0.00001091,-0.00
 001588,0.00001761,-0.00004742,-0.00000488,-0.00000492,0.00001362,-0.00
 000108,0.00001557,0.00003497,-0.00001452,0.00004130,0.00000275,-0.0000
 0745,0.00003597,0.00005291,0.00007792,0.00008101,-0.00005588,-0.000003
 03,-0.00000774,-0.00000068,-0.00004310,0.00016314,0.00008015,0.0000641
 1,0.00000562,-0.00004444,-0.00000714,0.00000245,0.00001819,0.00008629,
 0.00006032,0.00007644,-0.00046287,0.00018488,-0.00046604,0.00005451,0.
 00012701,0.00001206,-0.00026362,-0.00068748,0.00050548,0.00157862,-0.0
 0386096,-0.00073025,0.00187152,0.00145002,0.00055767,-0.08739294,-0.13
 658964,0.09606314,0.00699166,0.00986402,-0.00743372,-0.01652802,-0.015
 96664,0.01688579,0.09301225,0.14665049,0.00004489,0.00008869,-0.000006
 66,-0.00001209,-0.00000982,-0.00000145,0.00008186,-0.00015178,-0.00004
 982,-0.00009315,0.00032001,-0.00026351,-0.00067749,0.00106761,0.000025
 80,-0.00006586,-0.00000015,-0.00003540,-0.00005968,-0.00005219,0.00002
 639,0.00003081,-0.00002195,-0.00003981,0.00016505,-0.00022453,0.000202
 61,0.00005369,0.00002832,-0.00000715,0.00002218,-0.00006115,0.00002259
 ,-0.00000664,0.00015877,-0.00003389,-0.00001032,-0.00042960,0.00007112
 ,0.00001205,0.00000122,0.00000632,-0.00000196,0.00004517,-0.00001096,0
 .00000897,0.00002732,-0.00000663,-0.00000924,0.00000233,0.00000498,-0.
 00001027,0.00000681,-0.00002756,-0.00000447,-0.00000302,0.00000855,0.0
 0000694,-0.00000174,0.00000762,-0.00001994,0.00003595,0.00000814,0.000
 00658,0.00004057,0.00002820,0.00003587,0.00001640,-0.00010305,-0.00000
 942,-0.00000665,0.00000161,-0.00002735,-0.00012084,0.00003421,0.000025
 25,-0.00003371,-0.00004149,-0.00001284,-0.00000634,0.00001797,0.000075
 38,0.00016698,0.00008187,-0.00069208,-0.00026848,-0.00054017,0.0000732
 4,0.00016773,0.00002232,-0.00159674,0.00050248,-0.00095384,-0.00025064
 ,0.00052156,0.00132647,0.01147397,0.02135903,-0.02445561,0.08274793,0.
 09154630,-0.13854323,0.00656530,-0.00108772,-0.00179853,-0.00773399,-0
 .00685464,0.00836476,-0.08974497,-0.10459195,0.16151019,-0.00001951,-0
 .00004152,0.00000668,0.00000586,0.00000534,0.00000124,-0.00016481,-0.0
 0006721,-0.00004021,0.00001921,-0.00001166,0.00000036,-0.00000766,-0.0
 0004492,0.00006470,0.00006567,-0.00001392,0.00003674,0.00002098,0.0000
 2342,-0.00002164,-0.00000712,0.00000514,0.00000653,0.00000331,0.000028
 44,-0.00004534,-0.00001160,-0.00000369,0.00000587,-0.00008120,0.000028
 59,0.00000808,-0.00000711,-0.00000996,0.00001672,0.00006982,0.00018293
 ,0.00030982,-0.00000050,0.00000833,-0.00000134,-0.00000185,-0.00003452
 ,0.00000344,-0.00000199,-0.00000566,0.00000493,0.00000285,-0.00000111,
 -0.00000067,0.00000226,-0.00000216,0.00000654,0.00000136,0.00000038,-0
 .00000115,0.00000101,0.00000053,-0.00000395,0.00001441,-0.00000854,0.0
 0000071,-0.00000180,-0.00001517,-0.00000320,0.00011013,0.00001176,0.00
 000166,0.00000772,0.00000435,-0.00000263,0.00000170,-0.00000297,-0.000
 00745,-0.00000225,0.00000066,0.00000955,0.00000996,0.00000144,-0.00000
 920,0.00000951,0.00000364,-0.00003068,0.00000182,0.00011201,-0.0003525
 2,-0.00002927,-0.00013948,-0.00000067,0.00021334,-0.00023122,0.0008377
 2,0.00051426,-0.00092619,0.00124978,-0.13130182,-0.16470057,0.13090727
 ,0.00312152,0.01411708,-0.01622101,0.00132107,0.00156473,-0.00331821,0
 .00039314,-0.00023873,0.00080000,-0.00032925,0.00029676,-0.00162021,0.
 12750642,-0.00000628,-0.00001937,0.00000721,0.00000236,0.00000301,0.00
 000104,-0.00006243,-0.00001311,-0.00008722,-0.00001280,0.00007118,-0.0
 0004666,-0.00000315,0.00015461,0.00005090,0.00002589,-0.00000087,0.000
 03954,-0.00000272,0.00000791,-0.00001575,0.00000158,-0.00000261,-0.000
 01116,0.00002009,-0.00000579,0.00002456,0.00000392,0.00000067,0.000002
 55,0.00014899,0.00008156,0.00002389,-0.00000870,0.00000755,-0.00001106
 ,-0.00010487,0.00024499,0.00026423,0.00000076,0.00000982,0.00000156,0.
 00000310,-0.00001466,-0.00000069,0.00000233,0.00000359,0.00000275,0.00
 000066,-0.00000035,0.00000142,0.00000014,0.00000077,-0.00000179,0.0000
 0025,-0.00000070,0.00000114,0.00000012,-0.00000034,0.00000324,-0.00001
 509,-0.00006813,-0.00000248,-0.00000446,-0.00000014,-0.00000072,-0.000
 12842,-0.00012675,-0.00003746,0.00000605,-0.00000108,-0.00000047,-0.00
 000150,-0.00000084,0.00000541,0.00000720,-0.00000155,-0.00000028,0.000
 00635,0.00000055,-0.00000247,0.00002797,0.00003312,0.00000189,-0.00000
 734,-0.00044968,-0.00011181,-0.00002268,-0.00015140,-0.00001967,-0.000
 78111,0.00010440,-0.00096622,-0.00072557,0.00057711,-0.00135158,-0.122
 45321,-0.20085733,0.12533742,0.00128428,0.00140287,0.00059972,-0.00043
 410,-0.00059404,0.00140359,0.00047597,0.00055428,-0.00034421,-0.000206
 14,0.00162545,-0.00155794,0.14354485,0.22123415,-0.00001346,-0.0000324
 2,0.00001001,0.00000452,0.00000469,0.00000132,-0.00006079,0.00000073,-
 0.00011778,-0.00002610,0.00006558,-0.00002015,-0.00008390,0.00017298,0
 .00009550,0.00002202,-0.00001149,0.00005622,0.00000526,0.00001221,-0.0
 0002631,-0.00000425,0.00000013,-0.00000599,0.00002504,-0.00000708,0.00
 000567,-0.00000086,0.00000018,0.00000532,0.00013789,0.00008780,0.00003
 543,-0.00000978,0.00000414,-0.00000541,-0.00008302,0.00010647,0.000325
 60,-0.00000017,0.00001050,0.00000157,0.00000177,-0.00001810,0.00000022
 ,0.00000131,0.00000046,0.00000436,0.00000178,-0.00000025,0.00000081,0.
 00000088,-0.00000027,0.00000078,0.00000048,-0.00000002,0.00000050,0.00
 000171,0.00000045,0.00000047,-0.00001219,-0.00008470,-0.00000181,-0.00
 001549,-0.00001680,-0.00000635,-0.00012800,0.00004937,-0.00002208,0.00
 000637,0.00000117,-0.00000058,-0.00000049,0.00000084,-0.00000302,0.000
 00577,-0.00000027,0.00000251,0.00000850,0.00000146,-0.00000592,0.00004
 290,0.00004737,-0.00000662,0.00001309,-0.00008589,-0.00034983,-0.00003
 486,-0.00014387,0.00000271,0.00025217,-0.00010221,0.00052005,-0.000218
 34,0.00015328,0.00122689,0.10165654,0.13538603,-0.17739926,0.01994160,
 0.02430239,-0.02480169,0.00112722,0.00003627,-0.00088280,0.00064332,-0
 .00035879,0.00096976,-0.00392585,-0.00101961,-0.00526120,-0.11102229,-
 0.14567497,0.19504077,0.00000091,0.00004354,-0.00000099,-0.00000343,-0
 .00000810,-0.00000288,0.00055966,-0.00020618,0.00009211,-0.00001741,0.
 00010257,0.00006850,-0.00018509,-0.00019718,0.00007364,-0.00026025,0.0
 0006321,0.00004138,0.00000223,-0.00005782,-0.00000200,-0.00000731,0.00
 000215,0.00001947,-0.00000622,-0.00005260,-0.00000158,-0.00000416,0.00
 000310,-0.00000350,0.00035456,0.00052625,0.00002821,0.00002970,-0.0000
 0588,0.00000092,0.00008311,-0.00071346,-0.00067240,-0.00000454,-0.0000
 3495,-0.00001378,0.00000499,0.00010902,-0.00001252,-0.00000266,-0.0000
 0532,-0.00000613,-0.00000387,0.00000310,-0.00000310,-0.00000095,-0.000
 00053,-0.00000071,-0.00000268,0.00000207,-0.00000199,0.00000048,-0.000
 00164,-0.00000409,-0.00008755,-0.00008812,0.00001103,-0.00006151,-0.00
 015130,-0.00004461,-0.00056196,0.00115219,-0.00025560,-0.00003825,-0.0
 0000447,0.00001602,0.00000192,0.00000278,0.00000079,-0.00001582,0.0000
 0631,-0.00001143,-0.00003096,-0.00000494,0.00001719,-0.00019615,-0.000
 15502,-0.00009242,-0.00075517,-0.00038893,0.00168327,0.00004551,0.0005
 1285,-0.00005723,0.00123459,0.00019305,0.00180101,0.00185458,0.0006367
 9,0.00194896,-0.02153695,0.06758552,0.03600697,-0.00399983,-0.01610352
 ,-0.01358352,-0.00039924,-0.00299309,-0.00361302,-0.00067702,0.0005038
 4,-0.00205805,0.00035020,0.00057117,0.00088435,-0.00131442,-0.02066655
 ,-0.00820985,0.02574077,0.00007533,0.00015212,-0.00003992,-0.00002308,
 -0.00001967,-0.00000339,-0.00005331,-0.00019779,0.00037122,-0.00004024
 ,-0.00000578,0.00001245,-0.00007900,0.00024054,-0.00052280,0.00005454,
 -0.00001647,-0.00021501,-0.00006559,-0.00004071,0.00010523,0.00003086,
 -0.00002035,-0.00001767,-0.00004459,-0.00011325,0.00012599,0.00004644,
 0.00001592,-0.00002841,-0.00060725,-0.00097149,-0.00008645,0.00001965,
 0.00004555,-0.00004696,0.00001263,-0.00051520,0.00005806,0.00001200,-0
 .00000960,0.00000762,0.00000174,0.00002663,-0.00000922,0.00000501,0.00
 001887,-0.00001822,-0.00000959,0.00000311,0.00000346,-0.00001041,0.000
 00783,-0.00002298,-0.00000426,-0.00000067,0.00000457,-0.00000101,0.000
 00217,0.00000915,0.00012973,0.00041202,-0.00004166,0.00002542,0.000111
 65,-0.00005559,0.00140764,-0.00094275,0.00047405,-0.00000599,-0.000008
 86,-0.00000554,-0.00000773,0.00000347,0.00000741,0.00001160,-0.0000073
 1,-0.00002797,-0.00002020,0.00000022,0.00001767,-0.00011444,0.00002919
 ,-0.00017813,-0.00084496,-0.00011932,0.00092730,0.00007657,0.00020125,
 -0.00007516,0.00039871,-0.00011889,0.00028060,0.00030974,-0.00050021,0
 .00097500,0.01988779,-0.35936131,-0.13966501,0.00174080,0.00294320,0.0
 0037744,0.00101092,0.00057035,0.00044424,0.00078718,0.00181941,0.00074
 106,-0.00042574,0.00016232,-0.00012602,0.00667636,-0.02384592,-0.01278
 892,-0.03037730,0.38002696,-0.00007636,-0.00015479,0.00002535,0.000021
 20,0.00001858,0.00000415,-0.00015923,0.00018550,-0.00019170,0.00015692
 ,0.00013262,-0.00004997,0.00010372,-0.00041946,0.00051639,0.00005749,-
 0.00000203,0.00013521,0.00007489,0.00007115,-0.00007833,-0.00003300,0.
 00002389,0.00003595,-0.00000828,0.00014454,-0.00019475,-0.00005772,-0.
 00001881,0.00002724,0.00039829,0.00035066,0.00003356,-0.00001762,-0.00
 006545,0.00007040,-0.00015291,0.00068882,0.00065350,-0.00001821,0.0000
 0901,-0.00000942,0.00000595,-0.00006831,0.00001118,-0.00000952,-0.0000
 2760,0.00001696,0.00001121,-0.00000475,-0.00000392,0.00001119,-0.00001
 046,0.00002906,0.00000524,0.00000179,-0.00000677,-0.00000004,-0.000003
 53,-0.00001606,-0.00001137,-0.00024837,-0.00005955,-0.00007594,-0.0001
 6669,-0.00010484,-0.00060309,0.00039111,0.00048778,0.00001784,0.000007
 67,0.00000025,0.00001063,-0.00000975,-0.00001238,-0.00002037,0.0000092
 2,0.00003652,0.00002238,0.00000188,-0.00002564,-0.00000281,-0.00005373
 ,-0.00013899,0.00104985,0.00024560,-0.00079923,-0.00016054,-0.00044333
 ,-0.00006910,0.00048074,0.00003674,0.00071915,0.00024657,0.00076157,0.
 00126953,0.01279963,-0.13719529,-0.12505662,0.00358706,-0.03557188,-0.
 01855454,0.00025850,-0.00145152,-0.00100537,-0.00290282,0.00138027,-0.
 00569417,0.00055301,-0.00015109,0.00021549,-0.00156890,0.02249265,0.01
 051766,-0.01399171,0.14899013,0.13723083,0.00002951,0.00004892,0.00000
 111,-0.00000670,-0.00000452,0.,-0.00000406,0.00001834,-0.00012036,-0.0
 0000207,0.00006696,-0.00003039,0.00045137,0.00034231,0.00009148,0.0000
 3518,-0.00003054,0.00000383,-0.00004453,-0.00002631,0.00000851,0.00002
 287,-0.00001740,-0.00004839,0.00001181,-0.00004189,0.00016345,0.000033
 04,-0.00000448,-0.00001982,0.00005866,-0.00008404,0.00003506,-0.000006
 03,0.00004772,-0.00004878,-0.00000783,0.00000839,0.00005008,0.00001176
 ,0.00001935,0.00001080,-0.00000432,0.00000170,-0.00000330,0.00001075,0
 .00002443,-0.00000354,-0.00000502,0.00000166,0.00000406,-0.00000462,0.
 00000799,-0.00001997,-0.00000060,-0.00000150,0.00000678,-0.00001821,-0
 .00001619,0.00005113,-0.00000101,0.00001886,-0.00001008,0.00001557,0.0
 0004054,0.00002643,-0.00007903,-0.00005269,-0.00010090,0.00000192,-0.0
 0000320,-0.00000202,-0.00000882,0.00000565,0.00000990,0.00002303,-0.00
 001026,-0.00001894,0.00000182,0.00000093,0.00000716,0.00002083,-0.0000
 0887,0.00001637,-0.00003377,0.00001144,-0.00001573,0.00001198,0.000009
 04,-0.00000477,-0.42490855,0.17412857,0.00655485,0.00148048,-0.0010434
 3,0.00884849,-0.00025827,0.00023148,0.00005464,0.00316176,-0.00013974,
 -0.00373726,-0.02692853,0.00964971,-0.01231789,0.00017608,0.00029206,0
 .00052585,0.00046121,-0.00025707,0.00034506,-0.00013515,0.00008427,-0.
 00005040,-0.00008984,0.00001400,-0.00000186,0.44652731,0.00000765,0.00
 000964,0.00000404,-0.00000170,-0.00000043,0.00000030,0.00000193,-0.000
 00643,-0.00006441,0.00000309,-0.00002010,0.00000702,0.00032907,0.00011
 530,0.00007595,0.00000171,-0.00000705,0.00002298,-0.00001345,-0.000008
 86,-0.00000568,0.00000620,-0.00000587,-0.00001235,0.00000368,-0.000016
 03,0.00004606,0.00000748,-0.00000132,-0.00000478,0.00000421,0.00002641
 ,0.00001144,-0.00000198,0.00001697,-0.00001455,-0.00000017,0.00002426,
 0.00002471,0.00000460,0.00000857,0.00000332,-0.00000098,-0.00000056,-0
 .00000134,0.00000388,0.00000713,-0.00000064,-0.00000136,-0.00000085,0.
 00000094,0.00000220,0.00000400,-0.00000683,0.00000253,-0.00000627,0.00
 000210,-0.00001414,0.00000555,0.00002239,0.00000179,-0.00001197,-0.000
 00420,-0.00000448,-0.00000803,0.00000670,0.00002891,0.00000579,-0.0000
 1981,0.00000129,-0.00000089,0.00000016,-0.00000433,0.00000183,0.000001
 76,0.00000755,-0.00000408,-0.00000584,0.00000252,-0.00000014,0.0000022
 3,0.00000785,-0.00000733,0.00000432,-0.00000206,-0.00000014,0.,-0.0000
 0041,-0.00000223,-0.00000251,0.18442531,-0.09442440,-0.00987476,-0.001
 68677,-0.00534731,-0.00137505,-0.00014989,0.00073009,-0.00017458,0.000
 29783,0.00351958,-0.00101510,-0.00004144,0.00438040,0.00307779,-0.0007
 6377,0.00039766,0.00029747,0.00078799,-0.00017313,-0.00049301,-0.00011
 755,0.00003707,-0.00009887,0.00019738,0.00002276,0.00012344,-0.1833321
 9,0.09074043,0.00001233,0.00002069,-0.00000214,-0.00000309,-0.00000213
 ,0.00000013,-0.00000447,-0.00000470,-0.00003070,-0.00000981,0.00004315
 ,-0.00007242,0.00010376,0.00012325,-0.00001884,0.00001807,-0.00001191,
 -0.00001295,-0.00001724,-0.00000923,0.00000783,0.00000853,-0.00000573,
 -0.00002364,0.00000164,-0.00000788,0.00006879,0.00001600,0.00000927,-0
 .00000586,0.00003088,-0.00005124,0.00001220,-0.00000275,0.00001941,-0.
 00001924,-0.00000458,0.00000591,0.00002221,0.00000353,0.00000547,0.000
 00402,-0.00000183,-0.00000041,-0.00000113,0.00000434,0.00001025,-0.000
 00137,-0.00000178,0.00000099,0.00000186,-0.00000331,0.00000205,-0.0000
 0753,-0.00000103,0.00000071,0.00000274,0.00000791,-0.00000395,-0.00000
 205,-0.00000106,0.00001069,-0.00000445,0.00001239,0.00002799,0.0000118
 9,-0.00006175,-0.00003523,-0.00003727,0.00000103,-0.00000130,-0.000001
 28,-0.00000268,0.00000177,0.00000387,0.00000943,-0.00000346,-0.0000073
 9,-0.00000029,0.00000007,0.00000221,0.00000696,-0.00000247,0.00000653,
 -0.00000754,0.00001330,-0.00001193,0.00000747,0.00000202,-0.00000098,0
 .04819132,-0.02796264,-0.04662305,0.00617406,-0.00035794,0.00439679,-0
 .00174963,0.00036137,-0.00066714,-0.00022800,-0.00186744,-0.00490163,-
 0.05229595,0.02023211,-0.00145791,0.00031606,0.00006481,-0.00004186,-0
 .00021056,-0.00008909,0.00019275,-0.00000706,-0.00002011,0.00009266,-0
 .00005069,0.00004238,0.00003523,-0.00026062,0.00943920,0.04909107\\-0.
 00000314,0.00000024,-0.00000090,-0.00000263,0.00000284,-0.00000081,0.0
 0000029,-0.00000138,-0.00000863,0.00000361,0.00000293,0.00000416,-0.00
 000136,-0.00000624,-0.00000249,0.00000018,0.00000501,0.00000160,-0.000
 00220,0.00000408,-0.00000101,-0.00000124,0.00000052,-0.00000311,0.0000
 0055,-0.00000376,0.00000299,-0.00000166,-0.00000269,0.00000069,-0.0000
 0215,-0.00000028,0.00000150,-0.00000155,0.00000260,-0.00000021,-0.0000
 0234,0.00000347,-0.00000093,-0.00000247,0.00000143,-0.00000067,-0.0000
 0235,-0.00000045,-0.00000029,-0.00000224,0.00000103,0.00000001,-0.0000
 0297,-0.00000159,-0.00000149,-0.00000089,-0.00000184,-0.00000161,-0.00
 000122,-0.00000152,-0.00000135,0.00000028,-0.00000193,-0.00000112,-0.0
 0000115,-0.00000084,-0.00000060,-0.00000109,0.00000050,-0.00000024,0.0
 0000090,-0.00000011,0.00000078,-0.00000231,-0.00000029,0.00000023,0.00
 000088,0.00000111,-0.00000020,0.00000120,0.00000187,0.00000062,-0.0000
 0030,-0.00000128,0.00000237,-0.00000024,0.00000219,0.00000101,0.000002
 94,0.00000227,0.00000064,0.00000109,0.00000205,-0.00000030,0.00000351,
 -0.00000276,0.00000545,-0.00000074,-0.00000107,0.00000572,0.00000606,-
 0.00000201,0.00000060,0.00000923,-0.00000242,-0.00000004,0.00000344,-0
 .00000221,-0.00001008,0.00000264,-0.00000024,0.00000247,-0.00000185,0.
 00000283,0.00000221,0.00000167,-0.00000042,0.00000225,-0.00000133,0.00
 000059,0.00000143,0.00000096,-0.00000225,-0.00000062\\\@


 Spring appears, and we are once more children.
                                  -- Anonymous
 Job cpu time:       0 days 15 hours 21 minutes 12.5 seconds.
 Elapsed time:       0 days  1 hours 55 minutes 10.8 seconds.
 File lengths (MBytes):  RWF=   1512 Int=      0 D2E=      0 Chk=     34 Scr=      1
 Normal termination of Gaussian 16 at Mon Dec 21 22:42:44 2020.
