 Entering Gaussian System, Link 0=g16
 Input=Tem_Ala_CA-H.gjf
 Output=Tem_Ala_CA-H.log
 Initial command:
 /share/apps/g16/l1.exe "/backup/31784.cluster.hpc/Gau-763.inp" -scrdir="/backup/31784.cluster.hpc/"
 Entering Link 1 = /share/apps/g16/l1.exe PID=       764.
  
 Copyright (c) 1988,1990,1992,1993,1995,1998,2003,2009,2016,
            Gaussian, Inc.  All Rights Reserved.
  
 This is part of the Gaussian(R) 16 program.  It is based on
 the Gaussian(R) 09 system (copyright 2009, Gaussian, Inc.),
 the Gaussian(R) 03 system (copyright 2003, Gaussian, Inc.),
 the Gaussian(R) 98 system (copyright 1998, Gaussian, Inc.),
 the Gaussian(R) 94 system (copyright 1995, Gaussian, Inc.),
 the Gaussian 92(TM) system (copyright 1992, Gaussian, Inc.),
 the Gaussian 90(TM) system (copyright 1990, Gaussian, Inc.),
 the Gaussian 88(TM) system (copyright 1988, Gaussian, Inc.),
 the Gaussian 86(TM) system (copyright 1986, Carnegie Mellon
 University), and the Gaussian 82(TM) system (copyright 1983,
 Carnegie Mellon University). Gaussian is a federally registered
 trademark of Gaussian, Inc.
  
 This software contains proprietary and confidential information,
 including trade secrets, belonging to Gaussian, Inc.
  
 This software is provided under written license and may be
 used, copied, transmitted, or stored only in accord with that
 written license.
  
 The following legend is applicable only to US Government
 contracts under FAR:
  
                    RESTRICTED RIGHTS LEGEND
  
 Use, reproduction and disclosure by the US Government is
 subject to restrictions as set forth in subparagraphs (a)
 and (c) of the Commercial Computer Software - Restricted
 Rights clause in FAR 52.227-19.
  
 Gaussian, Inc.
 340 Quinnipiac St., Bldg. 40, Wallingford CT 06492
  
  
 ---------------------------------------------------------------
 Warning -- This program may not be used in any manner that
 competes with the business of Gaussian, Inc. or will provide
 assistance to any competitor of Gaussian, Inc.  The licensee
 of this program is prohibited from giving any competitor of
 Gaussian, Inc. access to this program.  By using this program,
 the user acknowledges that Gaussian, Inc. is engaged in the
 business of creating and licensing software in the field of
 computational chemistry and represents and warrants to the
 licensee that it is not a competitor of Gaussian, Inc. and that
 it will not use this program in any manner prohibited above.
 ---------------------------------------------------------------
  

 Cite this work as:
 Gaussian 16, Revision A.03,
 M. J. Frisch, G. W. Trucks, H. B. Schlegel, G. E. Scuseria, 
 M. A. Robb, J. R. Cheeseman, G. Scalmani, V. Barone, 
 G. A. Petersson, H. Nakatsuji, X. Li, M. Caricato, A. V. Marenich, 
 J. Bloino, B. G. Janesko, R. Gomperts, B. Mennucci, H. P. Hratchian, 
 J. V. Ortiz, A. F. Izmaylov, J. L. Sonnenberg, D. Williams-Young, 
 F. Ding, F. Lipparini, F. Egidi, J. Goings, B. Peng, A. Petrone, 
 T. Henderson, D. Ranasinghe, V. G. Zakrzewski, J. Gao, N. Rega, 
 G. Zheng, W. Liang, M. Hada, M. Ehara, K. Toyota, R. Fukuda, 
 J. Hasegawa, M. Ishida, T. Nakajima, Y. Honda, O. Kitao, H. Nakai, 
 T. Vreven, K. Throssell, J. A. Montgomery, Jr., J. E. Peralta, 
 F. Ogliaro, M. J. Bearpark, J. J. Heyd, E. N. Brothers, K. N. Kudin, 
 V. N. Staroverov, T. A. Keith, R. Kobayashi, J. Normand, 
 K. Raghavachari, A. P. Rendell, J. C. Burant, S. S. Iyengar, 
 J. Tomasi, M. Cossi, J. M. Millam, M. Klene, C. Adamo, R. Cammi, 
 J. W. Ochterski, R. L. Martin, K. Morokuma, O. Farkas, 
 J. B. Foresman, and D. J. Fox, Gaussian, Inc., Wallingford CT, 2016.
 
 ******************************************
 Gaussian 16:  ES64L-G16RevA.03 25-Dec-2016
                24-Dec-2020 
 ******************************************
 %mem=2GB
 %nprocshared=8
 Will use up to    8 processors via shared memory.
 %chk=Tem_Ala_CA-H.chk
 -----------------------------------------------------
 # opt freq m062x/6-311g(d,p) scrf=(solvent=water,pcm)
 -----------------------------------------------------
 1/18=20,19=15,26=3,38=1/1,3;
 2/9=110,12=2,17=6,18=5,40=1/2;
 3/5=4,6=6,7=101,11=2,25=1,30=1,70=2201,71=1,72=1,74=-55/1,2,3;
 4//1;
 5/5=2,38=5,53=1/2;
 6/7=2,8=2,9=2,10=2,28=1/1;
 7//1,2,3,16;
 1/18=20,19=15,26=3/3(2);
 2/9=110/2;
 99//99;
 2/9=110/2;
 3/5=4,6=6,7=101,11=2,25=1,30=1,70=2205,71=1,72=1,74=-55/1,2,3;
 4/5=5,16=3,69=1/1;
 5/5=2,38=5,53=1/2;
 7//1,2,3,16;
 1/18=20,19=15,26=3/3(-5);
 2/9=110/2;
 6/7=2,8=2,9=2,10=2,19=2,28=1/1;
 99/9=1/99;
 -------------------
 Title Card Required
 -------------------
 Symbolic Z-matrix:
 Charge =  0 Multiplicity = 2
 O                    0     4.15038  -0.93259  -1.99769  L 
 H                    0     4.906    -0.34274  -2.0783   L 
 C                    0     1.9959    1.3265    0.16862  L 
 N                    0     1.04565   0.24219   0.55655  L 
 O                    0     0.13043   0.57469   1.37633  L 
 C                    0     2.86003   0.86991  -1.0107   L 
 C                    0     3.40643  -0.54107  -0.85237  L 
 C                    0     2.23884  -1.50181  -0.74264  L 
 C                    0     1.32701  -1.22054   0.45453  L 
 C                    0    -0.01504  -1.9214    0.23946  L 
 C                    0     1.15697   2.53299  -0.25508  L 
 C                    0     1.9561   -1.6937    1.77186  L 
 C                    0     2.8497    1.69186   1.39072  L 
 H                    0     3.67769   1.588    -1.1276   L 
 H                    0     2.26837   0.89109  -1.93208  L 
 H                    0     2.60364  -2.52914  -0.66405  L 
 H                    0     1.66205  -1.42586  -1.6707   L 
 H                    0     0.16001  -2.98417   0.06063  L 
 H                    0    -0.52292  -1.49338  -0.62814  L 
 H                    0    -0.65584  -1.81043   1.11464  L 
 H                    0     0.46264   2.24806  -1.04918  L 
 H                    0     1.81974   3.31423  -0.63245  L 
 H                    0     0.58914   2.92628   0.58729  L 
 H                    0     4.04185  -0.60905   0.03906  L 
 H                    0     1.32813  -1.38001   2.60719  L 
 H                    0     2.02057  -2.78382   1.77048  L 
 H                    0     2.96022  -1.29337   1.91794  L 
 H                    0     3.43471   2.58695   1.16905  L 
 H                    0     2.19704   1.90017   2.23995  L 
 H                    0     3.54012   0.89352   1.66623  L 
 O                    0    -1.11597  -0.70839   4.20454  H 
 O                    0    -3.31014  -0.30601   4.06856  H 
 N                    0    -2.91686   1.77497   2.33867  H 
 C                    0    -1.76861   1.26461   3.07733  H 
 C                    0    -1.17483   2.25731   4.08999  H 
 C                    0    -2.17701   0.00883   3.81352  H 
 H                    0    -0.9821    0.97887   2.37284  H 
 H                    0    -2.73564   2.74969   2.10958  H 
 H                    0    -3.72495   1.76115   2.95578  H 
 H                    0    -1.43569  -1.46672   4.71425  H 
 H                    0    -1.92639   2.52001   4.83901  H 
 H                    0    -0.30091   1.84072   4.59333  H 
 H                    0    -0.88381   3.1649    3.55796  H 
 
 Add virtual bond connecting atoms H37        and O5         Dist= 2.92D+00.

 GradGradGradGradGradGradGradGradGradGradGradGradGradGradGradGradGradGrad
 Berny optimization.
 Initialization pass.
                           ----------------------------
                           !    Initial Parameters    !
                           ! (Angstroms and Degrees)  !
 --------------------------                            --------------------------
 ! Name  Definition              Value          Derivative Info.                !
 --------------------------------------------------------------------------------
 ! R1    R(1,2)                  0.962          estimate D2E/DX2                !
 ! R2    R(1,7)                  1.4207         estimate D2E/DX2                !
 ! R3    R(3,4)                  1.4931         estimate D2E/DX2                !
 ! R4    R(3,6)                  1.5317         estimate D2E/DX2                !
 ! R5    R(3,11)                 1.5294         estimate D2E/DX2                !
 ! R6    R(3,13)                 1.5349         estimate D2E/DX2                !
 ! R7    R(4,5)                  1.2729         estimate D2E/DX2                !
 ! R8    R(4,9)                  1.493          estimate D2E/DX2                !
 ! R9    R(5,37)                 1.5473         estimate D2E/DX2                !
 ! R10   R(6,7)                  1.5213         estimate D2E/DX2                !
 ! R11   R(6,14)                 1.0945         estimate D2E/DX2                !
 ! R12   R(6,15)                 1.0952         estimate D2E/DX2                !
 ! R13   R(7,8)                  1.516          estimate D2E/DX2                !
 ! R14   R(7,24)                 1.0968         estimate D2E/DX2                !
 ! R15   R(8,9)                  1.5309         estimate D2E/DX2                !
 ! R16   R(8,16)                 1.093          estimate D2E/DX2                !
 ! R17   R(8,17)                 1.0953         estimate D2E/DX2                !
 ! R18   R(9,10)                 1.5292         estimate D2E/DX2                !
 ! R19   R(9,12)                 1.5346         estimate D2E/DX2                !
 ! R20   R(10,18)                1.0918         estimate D2E/DX2                !
 ! R21   R(10,19)                1.0927         estimate D2E/DX2                !
 ! R22   R(10,20)                1.0904         estimate D2E/DX2                !
 ! R23   R(11,21)                1.0926         estimate D2E/DX2                !
 ! R24   R(11,22)                1.0918         estimate D2E/DX2                !
 ! R25   R(11,23)                1.0894         estimate D2E/DX2                !
 ! R26   R(12,25)                1.0911         estimate D2E/DX2                !
 ! R27   R(12,26)                1.092          estimate D2E/DX2                !
 ! R28   R(12,27)                1.0908         estimate D2E/DX2                !
 ! R29   R(13,28)                1.092          estimate D2E/DX2                !
 ! R30   R(13,29)                1.0911         estimate D2E/DX2                !
 ! R31   R(13,30)                1.0908         estimate D2E/DX2                !
 ! R32   R(31,36)                1.3391         estimate D2E/DX2                !
 ! R33   R(31,40)                0.968          estimate D2E/DX2                !
 ! R34   R(32,36)                1.2034         estimate D2E/DX2                !
 ! R35   R(33,34)                1.4576         estimate D2E/DX2                !
 ! R36   R(33,38)                1.0175         estimate D2E/DX2                !
 ! R37   R(33,39)                1.0169         estimate D2E/DX2                !
 ! R38   R(34,35)                1.5374         estimate D2E/DX2                !
 ! R39   R(34,36)                1.5119         estimate D2E/DX2                !
 ! R40   R(34,37)                1.0939         estimate D2E/DX2                !
 ! R41   R(35,41)                1.0931         estimate D2E/DX2                !
 ! R42   R(35,42)                1.0912         estimate D2E/DX2                !
 ! R43   R(35,43)                1.0915         estimate D2E/DX2                !
 ! A1    A(2,1,7)              108.0524         estimate D2E/DX2                !
 ! A2    A(4,3,6)              110.037          estimate D2E/DX2                !
 ! A3    A(4,3,11)             107.2043         estimate D2E/DX2                !
 ! A4    A(4,3,13)             108.6642         estimate D2E/DX2                !
 ! A5    A(6,3,11)             109.3497         estimate D2E/DX2                !
 ! A6    A(6,3,13)             111.7263         estimate D2E/DX2                !
 ! A7    A(11,3,13)            109.7512         estimate D2E/DX2                !
 ! A8    A(3,4,5)              115.8008         estimate D2E/DX2                !
 ! A9    A(3,4,9)              125.0161         estimate D2E/DX2                !
 ! A10   A(5,4,9)              115.8123         estimate D2E/DX2                !
 ! A11   A(3,6,7)              113.5142         estimate D2E/DX2                !
 ! A12   A(3,6,14)             107.9473         estimate D2E/DX2                !
 ! A13   A(3,6,15)             109.707          estimate D2E/DX2                !
 ! A14   A(7,6,14)             110.567          estimate D2E/DX2                !
 ! A15   A(7,6,15)             107.4285         estimate D2E/DX2                !
 ! A16   A(14,6,15)            107.5204         estimate D2E/DX2                !
 ! A17   A(1,7,6)              111.0852         estimate D2E/DX2                !
 ! A18   A(1,7,8)              106.678          estimate D2E/DX2                !
 ! A19   A(1,7,24)             109.5569         estimate D2E/DX2                !
 ! A20   A(6,7,8)              108.583          estimate D2E/DX2                !
 ! A21   A(6,7,24)             110.4956         estimate D2E/DX2                !
 ! A22   A(8,7,24)             110.3695         estimate D2E/DX2                !
 ! A23   A(7,8,9)              113.5082         estimate D2E/DX2                !
 ! A24   A(7,8,16)             110.1092         estimate D2E/DX2                !
 ! A25   A(7,8,17)             107.4747         estimate D2E/DX2                !
 ! A26   A(9,8,16)             108.3758         estimate D2E/DX2                !
 ! A27   A(9,8,17)             109.6447         estimate D2E/DX2                !
 ! A28   A(16,8,17)            107.5687         estimate D2E/DX2                !
 ! A29   A(4,9,8)              110.2231         estimate D2E/DX2                !
 ! A30   A(4,9,10)             107.0518         estimate D2E/DX2                !
 ! A31   A(4,9,12)             108.7033         estimate D2E/DX2                !
 ! A32   A(8,9,10)             109.1787         estimate D2E/DX2                !
 ! A33   A(8,9,12)             111.744          estimate D2E/DX2                !
 ! A34   A(10,9,12)            109.8265         estimate D2E/DX2                !
 ! A35   A(9,10,18)            109.1745         estimate D2E/DX2                !
 ! A36   A(9,10,19)            109.8804         estimate D2E/DX2                !
 ! A37   A(9,10,20)            110.8688         estimate D2E/DX2                !
 ! A38   A(18,10,19)           109.0126         estimate D2E/DX2                !
 ! A39   A(18,10,20)           108.9509         estimate D2E/DX2                !
 ! A40   A(19,10,20)           108.9224         estimate D2E/DX2                !
 ! A41   A(3,11,21)            110.1341         estimate D2E/DX2                !
 ! A42   A(3,11,22)            109.1025         estimate D2E/DX2                !
 ! A43   A(3,11,23)            110.8859         estimate D2E/DX2                !
 ! A44   A(21,11,22)           108.7325         estimate D2E/DX2                !
 ! A45   A(21,11,23)           108.9593         estimate D2E/DX2                !
 ! A46   A(22,11,23)           108.9873         estimate D2E/DX2                !
 ! A47   A(9,12,25)            109.4272         estimate D2E/DX2                !
 ! A48   A(9,12,26)            109.3241         estimate D2E/DX2                !
 ! A49   A(9,12,27)            112.2817         estimate D2E/DX2                !
 ! A50   A(25,12,26)           108.7802         estimate D2E/DX2                !
 ! A51   A(25,12,27)           108.7695         estimate D2E/DX2                !
 ! A52   A(26,12,27)           108.1907         estimate D2E/DX2                !
 ! A53   A(3,13,28)            109.358          estimate D2E/DX2                !
 ! A54   A(3,13,29)            109.4147         estimate D2E/DX2                !
 ! A55   A(3,13,30)            112.2687         estimate D2E/DX2                !
 ! A56   A(28,13,29)           108.7802         estimate D2E/DX2                !
 ! A57   A(28,13,30)           108.1837         estimate D2E/DX2                !
 ! A58   A(29,13,30)           108.7683         estimate D2E/DX2                !
 ! A59   A(36,31,40)           108.158          estimate D2E/DX2                !
 ! A60   A(34,33,38)           108.011          estimate D2E/DX2                !
 ! A61   A(34,33,39)           108.284          estimate D2E/DX2                !
 ! A62   A(38,33,39)           106.9289         estimate D2E/DX2                !
 ! A63   A(33,34,35)           114.3291         estimate D2E/DX2                !
 ! A64   A(33,34,36)           108.9533         estimate D2E/DX2                !
 ! A65   A(33,34,37)           109.3604         estimate D2E/DX2                !
 ! A66   A(35,34,36)           108.6584         estimate D2E/DX2                !
 ! A67   A(35,34,37)           108.3721         estimate D2E/DX2                !
 ! A68   A(36,34,37)           106.9096         estimate D2E/DX2                !
 ! A69   A(34,35,41)           109.9367         estimate D2E/DX2                !
 ! A70   A(34,35,42)           111.5099         estimate D2E/DX2                !
 ! A71   A(34,35,43)           108.5914         estimate D2E/DX2                !
 ! A72   A(41,35,42)           109.0457         estimate D2E/DX2                !
 ! A73   A(41,35,43)           108.5098         estimate D2E/DX2                !
 ! A74   A(42,35,43)           109.1929         estimate D2E/DX2                !
 ! A75   A(31,36,32)           122.9626         estimate D2E/DX2                !
 ! A76   A(31,36,34)           111.9027         estimate D2E/DX2                !
 ! A77   A(32,36,34)           125.0904         estimate D2E/DX2                !
 ! A78   L(4,5,37,20,-1)       180.0            estimate D2E/DX2                !
 ! A79   L(5,37,34,31,-1)      180.0            estimate D2E/DX2                !
 ! A80   L(4,5,37,20,-2)       180.0            estimate D2E/DX2                !
 ! A81   L(5,37,34,31,-2)      180.0            estimate D2E/DX2                !
 ! D1    D(2,1,7,6)             62.7072         estimate D2E/DX2                !
 ! D2    D(2,1,7,8)           -179.1247         estimate D2E/DX2                !
 ! D3    D(2,1,7,24)           -59.6505         estimate D2E/DX2                !
 ! D4    D(6,3,4,5)           -168.9998         estimate D2E/DX2                !
 ! D5    D(6,3,4,9)             32.6843         estimate D2E/DX2                !
 ! D6    D(11,3,4,5)           -50.1755         estimate D2E/DX2                !
 ! D7    D(11,3,4,9)           151.5086         estimate D2E/DX2                !
 ! D8    D(13,3,4,5)            68.3788         estimate D2E/DX2                !
 ! D9    D(13,3,4,9)           -89.9371         estimate D2E/DX2                !
 ! D10   D(4,3,6,7)            -45.0405         estimate D2E/DX2                !
 ! D11   D(4,3,6,14)          -167.9726         estimate D2E/DX2                !
 ! D12   D(4,3,6,15)            75.1457         estimate D2E/DX2                !
 ! D13   D(11,3,6,7)          -162.5411         estimate D2E/DX2                !
 ! D14   D(11,3,6,14)           74.5268         estimate D2E/DX2                !
 ! D15   D(11,3,6,15)          -42.3549         estimate D2E/DX2                !
 ! D16   D(13,3,6,7)            75.7576         estimate D2E/DX2                !
 ! D17   D(13,3,6,14)          -47.1746         estimate D2E/DX2                !
 ! D18   D(13,3,6,15)         -164.0562         estimate D2E/DX2                !
 ! D19   D(4,3,11,21)          -55.593          estimate D2E/DX2                !
 ! D20   D(4,3,11,22)         -174.8652         estimate D2E/DX2                !
 ! D21   D(4,3,11,23)           65.0893         estimate D2E/DX2                !
 ! D22   D(6,3,11,21)           63.6743         estimate D2E/DX2                !
 ! D23   D(6,3,11,22)          -55.598          estimate D2E/DX2                !
 ! D24   D(6,3,11,23)         -175.6435         estimate D2E/DX2                !
 ! D25   D(13,3,11,21)        -173.441          estimate D2E/DX2                !
 ! D26   D(13,3,11,22)          67.2868         estimate D2E/DX2                !
 ! D27   D(13,3,11,23)         -52.7587         estimate D2E/DX2                !
 ! D28   D(4,3,13,28)         -171.0108         estimate D2E/DX2                !
 ! D29   D(4,3,13,29)          -51.9571         estimate D2E/DX2                !
 ! D30   D(4,3,13,30)           68.9039         estimate D2E/DX2                !
 ! D31   D(6,3,13,28)           67.3949         estimate D2E/DX2                !
 ! D32   D(6,3,13,29)         -173.5515         estimate D2E/DX2                !
 ! D33   D(6,3,13,30)          -52.6904         estimate D2E/DX2                !
 ! D34   D(11,3,13,28)         -54.0746         estimate D2E/DX2                !
 ! D35   D(11,3,13,29)          64.9791         estimate D2E/DX2                !
 ! D36   D(11,3,13,30)        -174.1599         estimate D2E/DX2                !
 ! D37   D(3,4,34,33)           88.0523         estimate D2E/DX2                !
 ! D38   D(3,4,34,35)          -37.175          estimate D2E/DX2                !
 ! D39   D(3,4,34,36)         -154.1311         estimate D2E/DX2                !
 ! D40   D(9,4,34,33)         -111.59           estimate D2E/DX2                !
 ! D41   D(9,4,34,35)          123.1827         estimate D2E/DX2                !
 ! D42   D(9,4,34,36)            6.2266         estimate D2E/DX2                !
 ! D43   D(3,4,9,8)            -32.6358         estimate D2E/DX2                !
 ! D44   D(3,4,9,10)          -151.2681         estimate D2E/DX2                !
 ! D45   D(3,4,9,12)            90.1518         estimate D2E/DX2                !
 ! D46   D(5,4,9,8)            169.0505         estimate D2E/DX2                !
 ! D47   D(5,4,9,10)            50.4182         estimate D2E/DX2                !
 ! D48   D(5,4,9,12)           -68.1619         estimate D2E/DX2                !
 ! D49   D(3,6,7,1)            177.4733         estimate D2E/DX2                !
 ! D50   D(3,6,7,8)             60.4639         estimate D2E/DX2                !
 ! D51   D(3,6,7,24)           -60.7147         estimate D2E/DX2                !
 ! D52   D(14,6,7,1)           -61.0478         estimate D2E/DX2                !
 ! D53   D(14,6,7,8)          -178.0572         estimate D2E/DX2                !
 ! D54   D(14,6,7,24)           60.7642         estimate D2E/DX2                !
 ! D55   D(15,6,7,1)            56.0044         estimate D2E/DX2                !
 ! D56   D(15,6,7,8)           -61.0049         estimate D2E/DX2                !
 ! D57   D(15,6,7,24)          177.8164         estimate D2E/DX2                !
 ! D58   D(1,7,8,9)            179.8569         estimate D2E/DX2                !
 ! D59   D(1,7,8,16)            58.1646         estimate D2E/DX2                !
 ! D60   D(1,7,8,17)           -58.7242         estimate D2E/DX2                !
 ! D61   D(6,7,8,9)            -60.3455         estimate D2E/DX2                !
 ! D62   D(6,7,8,16)           177.9621         estimate D2E/DX2                !
 ! D63   D(6,7,8,17)            61.0733         estimate D2E/DX2                !
 ! D64   D(24,7,8,9)            60.9106         estimate D2E/DX2                !
 ! D65   D(24,7,8,16)          -60.7818         estimate D2E/DX2                !
 ! D66   D(24,7,8,17)         -177.6705         estimate D2E/DX2                !
 ! D67   D(7,8,9,4)             44.9796         estimate D2E/DX2                !
 ! D68   D(7,8,9,10)           162.3019         estimate D2E/DX2                !
 ! D69   D(7,8,9,12)           -76.0071         estimate D2E/DX2                !
 ! D70   D(16,8,9,4)           167.6338         estimate D2E/DX2                !
 ! D71   D(16,8,9,10)          -75.0438         estimate D2E/DX2                !
 ! D72   D(16,8,9,12)           46.6471         estimate D2E/DX2                !
 ! D73   D(17,8,9,4)           -75.2174         estimate D2E/DX2                !
 ! D74   D(17,8,9,10)           42.105          estimate D2E/DX2                !
 ! D75   D(17,8,9,12)          163.7959         estimate D2E/DX2                !
 ! D76   D(4,9,10,18)          174.4159         estimate D2E/DX2                !
 ! D77   D(4,9,10,19)           54.91           estimate D2E/DX2                !
 ! D78   D(4,9,10,20)          -65.5481         estimate D2E/DX2                !
 ! D79   D(8,9,10,18)           55.108          estimate D2E/DX2                !
 ! D80   D(8,9,10,19)          -64.3979         estimate D2E/DX2                !
 ! D81   D(8,9,10,20)          175.144          estimate D2E/DX2                !
 ! D82   D(12,9,10,18)         -67.7357         estimate D2E/DX2                !
 ! D83   D(12,9,10,19)         172.7584         estimate D2E/DX2                !
 ! D84   D(12,9,10,20)          52.3003         estimate D2E/DX2                !
 ! D85   D(4,9,12,25)           52.0698         estimate D2E/DX2                !
 ! D86   D(4,9,12,26)          171.1106         estimate D2E/DX2                !
 ! D87   D(4,9,12,27)          -68.8098         estimate D2E/DX2                !
 ! D88   D(8,9,12,25)          173.9356         estimate D2E/DX2                !
 ! D89   D(8,9,12,26)          -67.0236         estimate D2E/DX2                !
 ! D90   D(8,9,12,27)           53.0559         estimate D2E/DX2                !
 ! D91   D(10,9,12,25)         -64.7478         estimate D2E/DX2                !
 ! D92   D(10,9,12,26)          54.2929         estimate D2E/DX2                !
 ! D93   D(10,9,12,27)         174.3725         estimate D2E/DX2                !
 ! D94   D(40,31,36,32)         -1.1141         estimate D2E/DX2                !
 ! D95   D(40,31,36,34)        176.5764         estimate D2E/DX2                !
 ! D96   D(38,33,34,35)         39.7323         estimate D2E/DX2                !
 ! D97   D(38,33,34,36)        161.5016         estimate D2E/DX2                !
 ! D98   D(38,33,34,37)        -81.9702         estimate D2E/DX2                !
 ! D99   D(39,33,34,35)        -75.7287         estimate D2E/DX2                !
 ! D100  D(39,33,34,36)         46.0406         estimate D2E/DX2                !
 ! D101  D(39,33,34,37)        162.5688         estimate D2E/DX2                !
 ! D102  D(33,34,35,41)         60.715          estimate D2E/DX2                !
 ! D103  D(33,34,35,42)       -178.2165         estimate D2E/DX2                !
 ! D104  D(33,34,35,43)        -57.8599         estimate D2E/DX2                !
 ! D105  D(36,34,35,41)        -61.216          estimate D2E/DX2                !
 ! D106  D(36,34,35,42)         59.8525         estimate D2E/DX2                !
 ! D107  D(36,34,35,43)       -179.7909         estimate D2E/DX2                !
 ! D108  D(37,34,35,41)       -177.0415         estimate D2E/DX2                !
 ! D109  D(37,34,35,42)        -55.973          estimate D2E/DX2                !
 ! D110  D(37,34,35,43)         64.3836         estimate D2E/DX2                !
 ! D111  D(33,34,36,31)        162.8659         estimate D2E/DX2                !
 ! D112  D(33,34,36,32)        -19.5023         estimate D2E/DX2                !
 ! D113  D(35,34,36,31)        -71.984          estimate D2E/DX2                !
 ! D114  D(35,34,36,32)        105.6478         estimate D2E/DX2                !
 ! D115  D(37,34,36,31)         44.7827         estimate D2E/DX2                !
 ! D116  D(37,34,36,32)       -137.5855         estimate D2E/DX2                !
 --------------------------------------------------------------------------------
 Trust Radius=3.00D-01 FncErr=1.00D-07 GrdErr=1.00D-06 EigMax=2.50D+02 EigMin=1.00D-04
 Number of steps in this run=    250 maximum allowed number of steps=    258.
 GradGradGradGradGradGradGradGradGradGradGradGradGradGradGradGradGradGrad

                          Input orientation:                          
 ---------------------------------------------------------------------
 Center     Atomic      Atomic             Coordinates (Angstroms)
 Number     Number       Type             X           Y           Z
 ---------------------------------------------------------------------
      1          8           0        4.150375   -0.932591   -1.997686
      2          1           0        4.905995   -0.342742   -2.078295
      3          6           0        1.995900    1.326504    0.168621
      4          7           0        1.045649    0.242187    0.556551
      5          8           0        0.130433    0.574686    1.376325
      6          6           0        2.860029    0.869909   -1.010696
      7          6           0        3.406430   -0.541069   -0.852368
      8          6           0        2.238845   -1.501814   -0.742635
      9          6           0        1.327012   -1.220535    0.454531
     10          6           0       -0.015039   -1.921404    0.239460
     11          6           0        1.156974    2.532986   -0.255083
     12          6           0        1.956099   -1.693697    1.771860
     13          6           0        2.849699    1.691862    1.390721
     14          1           0        3.677690    1.587999   -1.127605
     15          1           0        2.268366    0.891085   -1.932080
     16          1           0        2.603637   -2.529142   -0.664045
     17          1           0        1.662054   -1.425860   -1.670701
     18          1           0        0.160009   -2.984171    0.060632
     19          1           0       -0.522924   -1.493375   -0.628141
     20          1           0       -0.655842   -1.810427    1.114639
     21          1           0        0.462644    2.248065   -1.049176
     22          1           0        1.819743    3.314233   -0.632447
     23          1           0        0.589140    2.926276    0.587294
     24          1           0        4.041851   -0.609049    0.039055
     25          1           0        1.328125   -1.380008    2.607188
     26          1           0        2.020573   -2.783824    1.770483
     27          1           0        2.960216   -1.293371    1.917939
     28          1           0        3.434713    2.586948    1.169053
     29          1           0        2.197036    1.900173    2.239948
     30          1           0        3.540122    0.893524    1.666225
     31          8           0       -1.115974   -0.708387    4.204537
     32          8           0       -3.310136   -0.306008    4.068561
     33          7           0       -2.916858    1.774973    2.338671
     34          6           0       -1.768610    1.264610    3.077329
     35          6           0       -1.174828    2.257309    4.089985
     36          6           0       -2.177012    0.008830    3.813520
     37          1           0       -0.982101    0.978871    2.372840
     38          1           0       -2.735637    2.749689    2.109579
     39          1           0       -3.724946    1.761149    2.955779
     40          1           0       -1.435688   -1.466721    4.714247
     41          1           0       -1.926390    2.520009    4.839011
     42          1           0       -0.300907    1.840718    4.593330
     43          1           0       -0.883810    3.164896    3.557963
 ---------------------------------------------------------------------
                    Distance matrix (angstroms):
                    1          2          3          4          5
     1  O    0.000000
     2  H    0.961967   0.000000
     3  C    3.799758   4.037780   0.000000
     4  N    4.188503   4.710289   1.493054   0.000000
     5  O    5.460382   5.965070   2.346006   1.272873   0.000000
     6  C    2.426551   2.606965   1.531661   2.478361   3.638093
     7  C    1.420738   1.947030   2.553398   2.858641   4.116326
     8  C    2.356505   3.200176   2.981408   2.480552   3.639676
     9  C    3.750688   4.471560   2.648880   1.493027   2.346130
    10  C    4.830450   5.663986   3.820707   2.430377   2.746651
    11  C    4.899728   5.064491   1.529353   2.432880   2.747766
    12  C    4.427596   5.034944   3.419587   2.460395   2.938548
    13  C    4.478930   4.516862   1.534923   2.460080   2.939846
    14  H    2.708107   2.477964   2.139392   3.402239   4.458643
    15  H    2.621461   2.915612   2.162585   2.847699   3.951760
    16  H    2.592291   3.475817   3.991075   3.405502   4.462465
    17  H    2.557728   3.444188   3.327171   2.850086   3.953785
    18  H    4.936464   5.837511   4.686585   3.382260   3.794389
    19  H    4.902026   5.735858   3.864068   2.622230   2.953242
    20  H    5.792830   6.578978   4.215095   2.723923   2.524970
    21  H    4.961411   5.245449   2.164065   2.634730   2.965403
    22  H    5.033015   4.998889   2.150304   3.383845   3.793949
    23  H    5.852809   6.035485   2.171067   2.722807   2.522490
    24  H    2.065132   2.302354   2.819409   3.157472   4.299850
    25  H    5.419423   5.985886   3.703747   2.629909   2.601984
    26  H    4.707676   5.394222   4.411504   3.403065   3.873962
    27  H    4.108377   4.545287   3.294505   2.806578   3.433752
    28  H    4.788273   4.614436   2.158649   3.403041   3.874329
    29  H    5.458720   5.569232   2.158691   2.628390   2.602616
    30  H    4.139003   4.173175   2.194291   2.806780   3.436812
    31  O    8.139550   8.710441   5.487546   4.345573   3.346430
    32  O    9.635932  10.261092   6.784442   5.622064   4.456599
    33  N    8.722424   9.229915   5.389382   4.607260   3.413617
    34  C    8.100484   8.585708   4.757725   3.914042   2.641169
    35  C    8.694423   9.043471   5.128062   4.634263   3.449475
    36  C    8.642465   9.219874   5.695151   4.587793   3.403588
    37  H    7.006960   7.498595   3.721279   2.820173   1.547300
    38  H    8.823037   9.246403   5.308504   4.795580   3.671874
    39  H    9.685749  10.210847   6.378499   5.551767   4.332011
    40  H    8.748683   9.360497   6.343550   5.134573   4.214475
    41  H    9.776909  10.135382   6.214609   5.688669   4.472695
    42  H    8.422983   8.740132   5.011765   4.545778   3.483965
    43  H    8.543866   8.808676   4.812489   4.612322   3.535169
                    6          7          8          9         10
     6  C    0.000000
     7  C    1.521342   0.000000
     8  C    2.466333   1.516023   0.000000
     9  C    2.977749   2.548262   1.530936   0.000000
    10  C    4.197658   3.847579   2.494105   1.529240   0.000000
    11  C    2.497433   3.855725   4.205682   3.823792   4.632470
    12  C    3.889959   3.212255   2.537607   1.534597   2.507087
    13  C    2.538211   3.213624   3.888948   3.417175   4.752664
    14  H    1.094482   2.163855   3.430076   3.989574   5.274564
    15  H    1.095200   2.124155   2.672380   3.322800   4.223697
    16  H    3.426288   2.152296   1.093002   2.143230   2.836041
    17  H    2.672322   2.120229   1.095337   2.161255   2.589772
    18  H    4.826156   4.164321   2.676598   2.151154   1.091831
    19  H    4.144373   4.049319   2.764154   2.160760   1.092652
    20  H    4.905364   4.688543   3.453103   2.171503   1.090359
    21  H    2.765547   4.060034   4.160583   3.878073   4.390129
    22  H    2.683279   4.174841   4.835504   4.689182   5.615919
    23  H    3.455308   4.693850   4.908994   4.214039   4.897553
    24  H    2.164716   1.096821   2.158448   2.813696   4.268582
    25  H    4.527465   4.122099   3.473552   2.158556   2.775488
    26  H    4.667913   3.718857   2.829656   2.157922   2.689148
    27  H    3.642351   2.905110   2.764503   2.194134   3.473307
    28  H    2.833688   3.724437   4.669328   4.410201   5.752406
    29  H    3.473858   4.121252   4.524496   3.699118   4.847647
    30  H    2.762063   2.901593   3.637798   3.291702   4.753804
    31  O    6.745241   6.786193   6.029830   4.504777   4.290140
    32  O    8.077906   8.329650   7.441018   5.949850   5.303696
    33  N    6.738681   7.451896   6.842007   5.525711   5.146887
    34  C    6.188056   6.744185   6.189097   4.757929   4.612938
    35  C    6.649955   7.296966   7.009878   5.618820   5.799423
    36  C    7.027538   7.297104   6.522299   5.007227   4.601503
    37  H    5.120756   5.654324   5.121959   3.721464   3.728017
    38  H    6.676913   7.571474   7.138339   5.916670   5.719975
    39  H    7.738807   8.405874   7.738992   6.377222   5.890925
    40  H    7.529144   7.435735   6.578829   5.083139   4.716853
    41  H    7.736389   8.378602   8.042327   6.618154   6.673477
    42  H    6.506850   7.005204   6.789358   5.399171   5.761203
    43  H    6.336871   7.182712   7.072785   5.809563   6.134955
                   11         12         13         14         15
    11  C    0.000000
    12  C    4.755202   0.000000
    13  C    2.506288   3.522186   0.000000
    14  H    2.829895   4.705348   2.652984   0.000000
    15  H    2.596796   4.527447   3.467016   1.766087   0.000000
    16  H    5.280646   2.655354   4.701009   4.280108   3.663096
    17  H    4.234565   3.465462   4.528023   3.666209   2.409184
    18  H    5.615393   2.796348   5.555975   5.889883   4.840835
    19  H    4.378677   3.456254   5.059261   5.233497   3.895793
    20  H    4.901803   2.695886   4.962970   5.946130   5.013148
    21  H    1.092638   5.072094   3.458394   3.283041   2.425190
    22  H    1.091794   5.556856   2.790359   2.583995   2.786028
    23  H    1.089363   4.961444   2.698036   3.777698   3.648157
    24  H    4.275677   2.920520   2.922742   2.514106   3.046477
    25  H    4.851125   1.091112   3.637494   5.317725   5.162061
    26  H    5.754754   1.092033   4.567651   5.500708   5.222579
    27  H    4.755493   1.090803   3.033445   4.253516   4.480307
    28  H    2.686851   4.568763   1.092043   2.516262   3.722008
    29  H    2.776213   3.632225   1.091123   3.691910   4.292920
    30  H    3.472557   3.035457   1.090839   2.882136   3.816434
    31  O    5.963305   4.040592   5.422667   7.528900   7.188194
    32  O    6.834388   5.910478   7.007559   8.911628   8.280122
    33  N    4.888584   6.008216   5.844544   7.452388   6.775479
    34  C    4.612243   4.932473   4.935176   6.888267   6.444445
    35  C    4.938919   5.548591   4.878789   7.156686   7.070179
    36  C    5.834411   4.914222   5.828411   7.822150   7.317901
    37  H    3.727853   4.017065   4.019403   5.859846   5.394958
    38  H    4.559716   6.470713   5.729898   7.277338   6.695481
    39  H    5.893939   6.753658   6.758710   8.455946   7.782542
    40  H    6.885768   4.495930   6.275908   8.342972   7.965735
    41  H    5.954587   6.498959   5.948745   8.238621   8.130009
    42  H    5.109967   5.054390   4.495017   6.972962   7.077001
    43  H    4.370747   5.904335   4.561343   6.726695   6.726589
                   16         17         18         19         20
    16  H    0.000000
    17  H    1.765550   0.000000
    18  H    2.589117   2.771640   0.000000
    19  H    3.293856   2.421904   1.778561   0.000000
    20  H    3.782125   3.643989   1.776012   1.776365   0.000000
    21  H    5.249179   3.914410   5.357197   3.891913   4.733335
    22  H    5.895805   4.855030   6.550188   5.348009   5.953400
    23  H    5.948582   5.019041   5.949362   4.716703   4.925894
    24  H    2.499913   3.042019   4.550864   4.697271   4.966740
    25  H    3.694375   4.291147   3.228433   3.729154   2.519740
    26  H    2.516298   3.716766   2.534843   3.726665   2.922470
    27  H    2.884600   3.818523   3.761589   4.319119   3.740122
    28  H    5.497755   5.225816   6.556649   5.961697   6.006039
    29  H    5.311999   5.161577   5.723261   5.209634   4.813916
    30  H    4.245210   4.476802   5.388841   5.241159   5.022122
    31  O    6.391693   6.538396   4.896863   4.931804   3.312655
    32  O    7.893833   7.675668   5.939526   5.589043   4.246671
    33  N    7.616927   6.876542   6.107866   5.021453   4.411977
    34  C    6.892530   6.446074   5.556273   4.784216   3.813956
    35  C    7.732252   7.402644   6.744672   6.062452   5.066410
    36  C    7.024563   6.846418   5.338903   4.972019   3.592716
    37  H    5.863986   5.396712   4.728257   3.915192   3.077287
    38  H    8.004180   7.146007   6.742411   5.513149   5.109806
    39  H    8.459355   7.783387   6.781800   5.804253   5.056219
    40  H    6.809620   7.096847   5.148305   5.419867   3.699118
    41  H    8.734913   8.415651   7.581687   6.925802   5.851318
    42  H    7.427788   7.332246   6.636064   6.199131   5.055505
    43  H    7.899981   7.409142   7.150657   6.273212   5.547579
                   21         22         23         24         25
    21  H    0.000000
    22  H    1.775414   0.000000
    23  H    1.775952   1.775574   0.000000
    24  H    4.707236   4.558599   4.971952   0.000000
    25  H    5.223119   5.724755   4.813538   3.814970   0.000000
    26  H    5.974741   6.557492   6.004513   3.437012   1.774897
    27  H    5.251991   5.388429   5.019765   2.273419   1.773779
    28  H    3.724054   2.526356   2.924188   3.443822   4.716215
    29  H    3.734633   3.223751   2.523783   3.813590   3.413130
    30  H    4.321927   3.755453   3.742254   2.270934   3.308669
    31  O    6.231705   6.942357   5.403947   6.630556   2.996034
    32  O    6.851890   7.843550   6.145831   8.389307   4.980217
    33  N    4.808571   5.799332   4.084708   7.706843   5.295837
    34  C    4.793091   5.553347   3.810563   6.819323   4.099366
    35  C    5.393735   5.690862   3.978435   7.199985   4.657632
    36  C    5.968900   6.831278   5.154767   7.300864   3.958546
    37  H    3.925345   4.726097   3.073981   5.762649   3.310041
    38  H    4.523092   5.346859   3.660967   7.842356   5.815168
    39  H    5.814866   6.784616   5.057527   8.628340   5.960026
    40  H    7.114798   7.876706   6.358466   7.252342   3.476476
    41  H    6.360204   6.678410   4.956818   8.273481   5.548247
    42  H    5.708486   5.828992   4.244873   6.752949   4.119658
    43  H    4.886639   4.989091   3.324364   7.133548   5.143226
                   26         27         28         29         30
    26  H    0.000000
    27  H    1.768084   0.000000
    28  H    5.586296   3.980308   0.000000
    29  H    4.710771   3.299221   1.774914   0.000000
    30  H    3.980300   2.276436   1.768043   1.773804   0.000000
    31  O    4.479953   4.710208   6.386090   4.651906   5.539709
    32  O    6.311672   6.702043   7.891092   6.208060   7.357726
    33  N    6.744160   6.643173   6.509206   5.116379   6.551468
    34  C    5.696979   5.499931   5.697777   4.102620   5.505593
    35  C    6.403414   5.867172   5.467027   3.862597   5.474055
    36  C    5.439911   5.628504   6.717987   5.018526   6.170833
    37  H    4.851469   4.572950   4.852139   3.312607   4.577891
    38  H    7.304539   6.987547   6.243740   5.006989   6.559502
    39  H    7.421098   7.422843   7.425298   5.966709   7.429464
    40  H    4.727182   5.212808   7.260953   5.536679   6.294433
    41  H    7.288692   6.852259   6.497269   4.913448   6.526468
    42  H    5.894414   5.255012   5.122244   3.432442   4.921242
    43  H    6.856952   6.110839   4.968959   3.581661   5.320618
                   31         32         33         34         35
    31  O    0.000000
    32  O    2.234893   0.000000
    33  N    3.590504   2.734533   0.000000
    34  C    2.364160   2.413646   1.457587   0.000000
    35  C    2.968492   3.336254   2.516827   1.537368   0.000000
    36  C    1.339065   1.203387   2.416985   1.511871   2.477189
    37  H    2.493968   3.153749   2.092423   1.093869   2.149451
    38  H    4.355508   3.674907   1.017544   2.019193   2.569158
    39  H    3.803254   2.384006   1.016868   2.022023   2.834731
    40  H    0.968035   2.297329   4.283201   3.201642   3.784990
    41  H    3.388492   3.239555   2.790665   2.168974   1.093113
    42  H    2.704336   3.733534   3.454130   2.187307   1.091166
    43  H    3.933736   4.265553   2.748062   2.150573   1.091537
                   36         37         38         39         40
    36  C    0.000000
    37  H    2.108163   0.000000
    38  H    3.275330   2.505992   0.000000
    39  H    2.490470   2.911182   1.634625   0.000000
    40  H    1.880989   3.415970   5.123698   4.330364   0.000000
    41  H    2.724054   3.057580   2.856122   2.712423   4.018752
    42  H    2.735633   2.477374   3.594879   3.796307   3.498785
    43  H    3.420297   2.488550   2.387357   3.225707   4.805563
                   41         42         43
    41  H    0.000000
    42  H    1.778762   0.000000
    43  H    1.773115   1.779103   0.000000
 Stoichiometry    C12H25N2O4(2)
 Framework group  C1[X(C12H25N2O4)]
 Deg. of freedom   123
 Full point group                 C1      NOp   1
 Largest Abelian subgroup         C1      NOp   1
 Largest concise Abelian subgroup C1      NOp   1
                         Standard orientation:                         
 ---------------------------------------------------------------------
 Center     Atomic      Atomic             Coordinates (Angstroms)
 Number     Number       Type             X           Y           Z
 ---------------------------------------------------------------------
      1          8           0        4.942043   -0.462950   -0.187357
      2          1           0        5.478484    0.208025    0.245547
      3          6           0        1.606344    1.338770    0.067737
      4          7           0        0.796143    0.128403   -0.260584
      5          8           0       -0.467015    0.282642   -0.231466
      6          6           0        3.079978    1.090854   -0.268310
      7          6           0        3.589958   -0.263552    0.200717
      8          6           0        2.777599   -1.347728   -0.479697
      9          6           0        1.281534   -1.280068   -0.161930
     10          6           0        0.509857   -2.094157   -1.201328
     11          6           0        1.076059    2.485508   -0.794069
     12          6           0        0.974842   -1.808805    1.245680
     13          6           0        1.410683    1.672770    1.553048
     14          1           0        3.668200    1.898768    0.177962
     15          1           0        3.224452    1.138120   -1.352909
     16          1           0        3.147652   -2.333814   -0.187556
     17          1           0        2.929768   -1.244037   -1.559445
     18          1           0        0.907767   -3.110541   -1.228294
     19          1           0        0.624893   -1.640542   -2.188692
     20          1           0       -0.550965   -2.135672   -0.952699
     21          1           0        1.104962    2.206784   -1.850164
     22          1           0        1.706287    3.364671   -0.646087
     23          1           0        0.051074    2.734248   -0.521590
     24          1           0        3.504334   -0.349671    1.290794
     25          1           0       -0.079533   -1.644498    1.473324
     26          1           0        1.179315   -2.880927    1.281480
     27          1           0        1.579399   -1.321081    2.011505
     28          1           0        1.866072    2.641493    1.769272
     29          1           0        0.343784    1.728844    1.774703
     30          1           0        1.866500    0.928648    2.207604
     31          8           0       -3.041351   -1.389888    1.100460
     32          8           0       -4.661947   -1.209086   -0.427847
     33          7           0       -3.549427    1.058132   -1.476510
     34          6           0       -3.088025    0.602684   -0.171046
     35          6           0       -3.433845    1.550429    0.988993
     36          6           0       -3.690167   -0.753910    0.116761
     37          1           0       -2.002506    0.470135   -0.196069
     38          1           0       -3.404392    2.063962   -1.528146
     39          1           0       -4.552363    0.900290   -1.533295
     40          1           0       -3.501860   -2.223035    1.276214
     41          1           0       -4.518440    1.659568    1.070468
     42          1           0       -3.040824    1.181569    1.937739
     43          1           0       -3.001806    2.530436    0.778324
 ---------------------------------------------------------------------
 Rotational constants (GHZ):           0.7399239           0.2158633           0.1915515
 Standard basis: 6-311G(d,p) (5D, 7F)
 There are   492 symmetry adapted cartesian basis functions of A   symmetry.
 There are   474 symmetry adapted basis functions of A   symmetry.
   474 basis functions,   776 primitive gaussians,   492 cartesian basis functions
    72 alpha electrons       71 beta electrons
       nuclear repulsion energy      1515.9646670389 Hartrees.
 NAtoms=   43 NActive=   43 NUniq=   43 SFac= 1.00D+00 NAtFMM=   60 NAOKFM=F Big=F
 Integral buffers will be    131072 words long.
 Raffenetti 2 integral format.
 Two-electron integral symmetry is turned on.
 ------------------------------------------------------------------------------
 Polarizable Continuum Model (PCM)
 =================================
 Model                : PCM.
 Atomic radii         : UFF (Universal Force Field).
 Polarization charges : Total charges.
 Charge compensation  : None.
 Solution method      : On-the-fly selection.
 Cavity type          : Scaled VdW (van der Waals Surface) (Alpha=1.100).
 Cavity algorithm     : GePol (No added spheres)
                        Default sphere list used, NSphG=   43.
                        Lebedev-Laikov grids with approx.  5.0 points / Ang**2.
                        Smoothing algorithm: York/Karplus (Gamma=1.0000).
                        Polarization charges: spherical gaussians, with
                                              point-specific exponents (IZeta= 3).
                        Self-potential: point-specific (ISelfS= 7).
                        Self-field    : sphere-specific E.n sum rule (ISelfD= 2).
 1st derivatives      : Analytical E(r).r(x)/FMM algorithm (CHGder, D1EAlg=3).
                        Cavity 1st derivative terms included.
 Solvent              : Water, Eps=  78.355300 Eps(inf)=   1.777849
 ------------------------------------------------------------------------------
 One-electron integrals computed using PRISM.
 NBasis=   474 RedAO= T EigKep=  9.02D-04  NBF=   474
 NBsUse=   474 1.00D-06 EigRej= -1.00D+00 NBFU=   474
 ExpMin= 1.03D-01 ExpMax= 8.59D+03 ExpMxC= 1.30D+03 IAcc=3 IRadAn=         5 AccDes= 0.00D+00
 Harris functional with IExCor= 1009 and IRadAn=       5 diagonalized for initial guess.
 HarFok:  IExCor= 1009 AccDes= 0.00D+00 IRadAn=         5 IDoV= 1 UseB2=F ITyADJ=14
 ICtDFT=  3500011 ScaDFX=  1.000000  1.000000  1.000000  1.000000
 FoFCou: FMM=F IPFlag=           0 FMFlag=      100000 FMFlg1=           0
         NFxFlg=           0 DoJE=T BraDBF=F KetDBF=T FulRan=T
         wScrn=  0.000000 ICntrl=       500 IOpCl=  0 I1Cent=   200000004 NGrid=           0
         NMat0=    1 NMatS0=      1 NMatT0=    0 NMatD0=    1 NMtDS0=    0 NMtDT0=    0
 Petite list used in FoFCou.
 Initial guess <Sx>= 0.0000 <Sy>= 0.0000 <Sz>= 0.5000 <S**2>= 0.7500 S= 0.5000
 Requested convergence on RMS density matrix=1.00D-08 within 128 cycles.
 Requested convergence on MAX density matrix=1.00D-06.
 Requested convergence on             energy=1.00D-06.
 No special actions if energy rises.
 Inv3:  Mode=1 IEnd=    22786608.
 Iteration    1 A*A^-1 deviation from unit magnitude is 7.88D-15 for   1369.
 Iteration    1 A*A^-1 deviation from orthogonality  is 4.88D-15 for   2620   1003.
 Iteration    1 A^-1*A deviation from unit magnitude is 7.88D-15 for   1369.
 Iteration    1 A^-1*A deviation from orthogonality  is 3.44D-15 for   2622   1005.
 Error on total polarization charges =  0.01214
 SCF Done:  E(UM062X) =  -882.554570680     A.U. after   15 cycles
            NFock= 15  Conv=0.47D-08     -V/T= 2.0034
 <Sx>= 0.0000 <Sy>= 0.0000 <Sz>= 0.5000 <S**2>= 0.7547 S= 0.5023
 <L.S>= 0.000000000000E+00
 Annihilation of the first spin contaminant:
 S**2 before annihilation     0.7547,   after     0.7500

 **********************************************************************

            Population analysis using the SCF density.

 **********************************************************************

 Orbital symmetries:
 Alpha Orbitals:
       Occupied  (A) (A) (A) (A) (A) (A) (A) (A) (A) (A) (A) (A)
                 (A) (A) (A) (A) (A) (A) (A) (A) (A) (A) (A) (A)
                 (A) (A) (A) (A) (A) (A) (A) (A) (A) (A) (A) (A)
                 (A) (A) (A) (A) (A) (A) (A) (A) (A) (A) (A) (A)
                 (A) (A) (A) (A) (A) (A) (A) (A) (A) (A) (A) (A)
                 (A) (A) (A) (A) (A) (A) (A) (A) (A) (A) (A) (A)
       Virtual   (A) (A) (A) (A) (A) (A) (A) (A) (A) (A) (A) (A)
                 (A) (A) (A) (A) (A) (A) (A) (A) (A) (A) (A) (A)
                 (A) (A) (A) (A) (A) (A) (A) (A) (A) (A) (A) (A)
                 (A) (A) (A) (A) (A) (A) (A) (A) (A) (A) (A) (A)
                 (A) (A) (A) (A) (A) (A) (A) (A) (A) (A) (A) (A)
                 (A) (A) (A) (A) (A) (A) (A) (A) (A) (A) (A) (A)
                 (A) (A) (A) (A) (A) (A) (A) (A) (A) (A) (A) (A)
                 (A) (A) (A) (A) (A) (A) (A) (A) (A) (A) (A) (A)
                 (A) (A) (A) (A) (A) (A) (A) (A) (A) (A) (A) (A)
                 (A) (A) (A) (A) (A) (A) (A) (A) (A) (A) (A) (A)
                 (A) (A) (A) (A) (A) (A) (A) (A) (A) (A) (A) (A)
                 (A) (A) (A) (A) (A) (A) (A) (A) (A) (A) (A) (A)
                 (A) (A) (A) (A) (A) (A) (A) (A) (A) (A) (A) (A)
                 (A) (A) (A) (A) (A) (A) (A) (A) (A) (A) (A) (A)
                 (A) (A) (A) (A) (A) (A) (A) (A) (A) (A) (A) (A)
                 (A) (A) (A) (A) (A) (A) (A) (A) (A) (A) (A) (A)
                 (A) (A) (A) (A) (A) (A) (A) (A) (A) (A) (A) (A)
                 (A) (A) (A) (A) (A) (A) (A) (A) (A) (A) (A) (A)
                 (A) (A) (A) (A) (A) (A) (A) (A) (A) (A) (A) (A)
                 (A) (A) (A) (A) (A) (A) (A) (A) (A) (A) (A) (A)
                 (A) (A) (A) (A) (A) (A) (A) (A) (A) (A) (A) (A)
                 (A) (A) (A) (A) (A) (A) (A) (A) (A) (A) (A) (A)
                 (A) (A) (A) (A) (A) (A) (A) (A) (A) (A) (A) (A)
                 (A) (A) (A) (A) (A) (A) (A) (A) (A) (A) (A) (A)
                 (A) (A) (A) (A) (A) (A) (A) (A) (A) (A) (A) (A)
                 (A) (A) (A) (A) (A) (A) (A) (A) (A) (A) (A) (A)
                 (A) (A) (A) (A) (A) (A) (A) (A) (A) (A) (A) (A)
                 (A) (A) (A) (A) (A) (A) (A) (A) (A) (A) (A) (A)
                 (A) (A) (A) (A) (A) (A) (A) (A) (A) (A) (A) (A)
                 (A) (A) (A) (A) (A) (A) (A) (A) (A) (A) (A) (A)
                 (A) (A) (A) (A) (A) (A) (A) (A) (A) (A) (A) (A)
                 (A) (A) (A) (A) (A) (A) (A) (A) (A) (A) (A) (A)
                 (A) (A) (A) (A) (A) (A) (A) (A) (A) (A) (A) (A)
                 (A) (A) (A) (A) (A) (A)
 Beta  Orbitals:
       Occupied  (A) (A) (A) (A) (A) (A) (A) (A) (A) (A) (A) (A)
                 (A) (A) (A) (A) (A) (A) (A) (A) (A) (A) (A) (A)
                 (A) (A) (A) (A) (A) (A) (A) (A) (A) (A) (A) (A)
                 (A) (A) (A) (A) (A) (A) (A) (A) (A) (A) (A) (A)
                 (A) (A) (A) (A) (A) (A) (A) (A) (A) (A) (A) (A)
                 (A) (A) (A) (A) (A) (A) (A) (A) (A) (A) (A)
       Virtual   (A) (A) (A) (A) (A) (A) (A) (A) (A) (A) (A) (A)
                 (A) (A) (A) (A) (A) (A) (A) (A) (A) (A) (A) (A)
                 (A) (A) (A) (A) (A) (A) (A) (A) (A) (A) (A) (A)
                 (A) (A) (A) (A) (A) (A) (A) (A) (A) (A) (A) (A)
                 (A) (A) (A) (A) (A) (A) (A) (A) (A) (A) (A) (A)
                 (A) (A) (A) (A) (A) (A) (A) (A) (A) (A) (A) (A)
                 (A) (A) (A) (A) (A) (A) (A) (A) (A) (A) (A) (A)
                 (A) (A) (A) (A) (A) (A) (A) (A) (A) (A) (A) (A)
                 (A) (A) (A) (A) (A) (A) (A) (A) (A) (A) (A) (A)
                 (A) (A) (A) (A) (A) (A) (A) (A) (A) (A) (A) (A)
                 (A) (A) (A) (A) (A) (A) (A) (A) (A) (A) (A) (A)
                 (A) (A) (A) (A) (A) (A) (A) (A) (A) (A) (A) (A)
                 (A) (A) (A) (A) (A) (A) (A) (A) (A) (A) (A) (A)
                 (A) (A) (A) (A) (A) (A) (A) (A) (A) (A) (A) (A)
                 (A) (A) (A) (A) (A) (A) (A) (A) (A) (A) (A) (A)
                 (A) (A) (A) (A) (A) (A) (A) (A) (A) (A) (A) (A)
                 (A) (A) (A) (A) (A) (A) (A) (A) (A) (A) (A) (A)
                 (A) (A) (A) (A) (A) (A) (A) (A) (A) (A) (A) (A)
                 (A) (A) (A) (A) (A) (A) (A) (A) (A) (A) (A) (A)
                 (A) (A) (A) (A) (A) (A) (A) (A) (A) (A) (A) (A)
                 (A) (A) (A) (A) (A) (A) (A) (A) (A) (A) (A) (A)
                 (A) (A) (A) (A) (A) (A) (A) (A) (A) (A) (A) (A)
                 (A) (A) (A) (A) (A) (A) (A) (A) (A) (A) (A) (A)
                 (A) (A) (A) (A) (A) (A) (A) (A) (A) (A) (A) (A)
                 (A) (A) (A) (A) (A) (A) (A) (A) (A) (A) (A) (A)
                 (A) (A) (A) (A) (A) (A) (A) (A) (A) (A) (A) (A)
                 (A) (A) (A) (A) (A) (A) (A) (A) (A) (A) (A) (A)
                 (A) (A) (A) (A) (A) (A) (A) (A) (A) (A) (A) (A)
                 (A) (A) (A) (A) (A) (A) (A) (A) (A) (A) (A) (A)
                 (A) (A) (A) (A) (A) (A) (A) (A) (A) (A) (A) (A)
                 (A) (A) (A) (A) (A) (A) (A) (A) (A) (A) (A) (A)
                 (A) (A) (A) (A) (A) (A) (A) (A) (A) (A) (A) (A)
                 (A) (A) (A) (A) (A) (A) (A) (A) (A) (A) (A) (A)
                 (A) (A) (A) (A) (A) (A) (A)
 The electronic state is 2-A.
 Alpha  occ. eigenvalues --  -19.66640 -19.62900 -19.61885 -19.61308 -14.84500
 Alpha  occ. eigenvalues --  -14.71637 -10.67194 -10.59501 -10.59439 -10.59300
 Alpha  occ. eigenvalues --  -10.55296 -10.53957 -10.53918 -10.53125 -10.52973
 Alpha  occ. eigenvalues --  -10.52815 -10.52750 -10.52654  -1.24056  -1.23937
 Alpha  occ. eigenvalues --   -1.15020  -1.14437  -0.99257  -0.98547  -0.93135
 Alpha  occ. eigenvalues --   -0.86595  -0.84042  -0.82457  -0.79431  -0.78438
 Alpha  occ. eigenvalues --   -0.78307  -0.75533  -0.69521  -0.69075  -0.66855
 Alpha  occ. eigenvalues --   -0.63071  -0.60753  -0.58975  -0.58272  -0.57499
 Alpha  occ. eigenvalues --   -0.57054  -0.56159  -0.54296  -0.52925  -0.51788
 Alpha  occ. eigenvalues --   -0.51590  -0.50362  -0.50168  -0.49153  -0.48558
 Alpha  occ. eigenvalues --   -0.47621  -0.47435  -0.46660  -0.46375  -0.45877
 Alpha  occ. eigenvalues --   -0.44646  -0.44237  -0.43815  -0.43599  -0.43161
 Alpha  occ. eigenvalues --   -0.41676  -0.41253  -0.40618  -0.40025  -0.39831
 Alpha  occ. eigenvalues --   -0.39267  -0.38118  -0.35120  -0.34932  -0.34267
 Alpha  occ. eigenvalues --   -0.30536  -0.27350
 Alpha virt. eigenvalues --    0.05416   0.06079   0.07620   0.08004   0.08353
 Alpha virt. eigenvalues --    0.09495   0.10047   0.10671   0.11363   0.12381
 Alpha virt. eigenvalues --    0.13139   0.14490   0.14713   0.15688   0.15817
 Alpha virt. eigenvalues --    0.15932   0.16476   0.16761   0.17401   0.18119
 Alpha virt. eigenvalues --    0.18878   0.19396   0.20126   0.20319   0.20480
 Alpha virt. eigenvalues --    0.20909   0.21802   0.22046   0.22914   0.23990
 Alpha virt. eigenvalues --    0.24077   0.25564   0.26272   0.26830   0.28553
 Alpha virt. eigenvalues --    0.29015   0.29316   0.29745   0.30390   0.31031
 Alpha virt. eigenvalues --    0.32917   0.33281   0.34047   0.34649   0.35257
 Alpha virt. eigenvalues --    0.35878   0.36743   0.37531   0.38855   0.40821
 Alpha virt. eigenvalues --    0.41310   0.41933   0.42884   0.43479   0.44764
 Alpha virt. eigenvalues --    0.45702   0.45932   0.46218   0.48458   0.48705
 Alpha virt. eigenvalues --    0.49579   0.50477   0.50977   0.51617   0.52386
 Alpha virt. eigenvalues --    0.52849   0.53676   0.53963   0.55218   0.57435
 Alpha virt. eigenvalues --    0.58344   0.58617   0.59403   0.59939   0.60447
 Alpha virt. eigenvalues --    0.61209   0.62421   0.62535   0.62750   0.63801
 Alpha virt. eigenvalues --    0.64021   0.64755   0.65002   0.65126   0.65604
 Alpha virt. eigenvalues --    0.65969   0.66134   0.66657   0.67520   0.67778
 Alpha virt. eigenvalues --    0.68138   0.68518   0.68878   0.69347   0.69529
 Alpha virt. eigenvalues --    0.70190   0.70837   0.72199   0.73045   0.73872
 Alpha virt. eigenvalues --    0.74137   0.74396   0.74816   0.75002   0.76417
 Alpha virt. eigenvalues --    0.78272   0.78833   0.80712   0.81362   0.84729
 Alpha virt. eigenvalues --    0.87314   0.87660   0.88414   0.90382   0.93431
 Alpha virt. eigenvalues --    0.94801   0.94884   0.95544   0.95891   0.98096
 Alpha virt. eigenvalues --    0.98663   0.99853   1.00804   1.02761   1.03290
 Alpha virt. eigenvalues --    1.03726   1.04838   1.07001   1.10462   1.11376
 Alpha virt. eigenvalues --    1.12041   1.13191   1.13956   1.15435   1.17367
 Alpha virt. eigenvalues --    1.20240   1.22070   1.24088   1.25026   1.25761
 Alpha virt. eigenvalues --    1.26381   1.29600   1.31211   1.33125   1.33591
 Alpha virt. eigenvalues --    1.35393   1.36193   1.37008   1.38215   1.40686
 Alpha virt. eigenvalues --    1.42898   1.43321   1.44914   1.46434   1.47023
 Alpha virt. eigenvalues --    1.47472   1.48129   1.48521   1.49176   1.49242
 Alpha virt. eigenvalues --    1.49862   1.50160   1.50363   1.50985   1.51876
 Alpha virt. eigenvalues --    1.52373   1.52427   1.54668   1.54845   1.55414
 Alpha virt. eigenvalues --    1.55603   1.55732   1.57160   1.57804   1.58804
 Alpha virt. eigenvalues --    1.58963   1.59820   1.59959   1.60301   1.61000
 Alpha virt. eigenvalues --    1.62861   1.64407   1.65276   1.66241   1.66541
 Alpha virt. eigenvalues --    1.66904   1.68472   1.69064   1.69136   1.70362
 Alpha virt. eigenvalues --    1.70808   1.70947   1.71811   1.72321   1.73747
 Alpha virt. eigenvalues --    1.74305   1.75012   1.75867   1.76245   1.77317
 Alpha virt. eigenvalues --    1.78091   1.79055   1.79788   1.80185   1.81451
 Alpha virt. eigenvalues --    1.81882   1.84438   1.86101   1.86165   1.87434
 Alpha virt. eigenvalues --    1.87677   1.88565   1.89194   1.89881   1.91091
 Alpha virt. eigenvalues --    1.92381   1.92729   1.93441   1.94189   1.97231
 Alpha virt. eigenvalues --    1.97815   1.98747   2.00295   2.01542   2.02577
 Alpha virt. eigenvalues --    2.03670   2.04594   2.06367   2.07254   2.08633
 Alpha virt. eigenvalues --    2.09860   2.10728   2.11725   2.13618   2.14535
 Alpha virt. eigenvalues --    2.15075   2.15757   2.17007   2.18459   2.21411
 Alpha virt. eigenvalues --    2.22156   2.23616   2.24504   2.26313   2.26598
 Alpha virt. eigenvalues --    2.26863   2.30021   2.32516   2.32956   2.34991
 Alpha virt. eigenvalues --    2.37843   2.41269   2.41339   2.41939   2.42892
 Alpha virt. eigenvalues --    2.43937   2.46081   2.46705   2.46840   2.48646
 Alpha virt. eigenvalues --    2.48864   2.49815   2.50792   2.52606   2.53079
 Alpha virt. eigenvalues --    2.53605   2.54522   2.55473   2.56189   2.56556
 Alpha virt. eigenvalues --    2.56683   2.57337   2.57552   2.58361   2.59003
 Alpha virt. eigenvalues --    2.59571   2.59738   2.60079   2.60522   2.61360
 Alpha virt. eigenvalues --    2.62664   2.64086   2.65342   2.65720   2.66623
 Alpha virt. eigenvalues --    2.67429   2.68570   2.70024   2.70461   2.72629
 Alpha virt. eigenvalues --    2.72704   2.75238   2.77571   2.77667   2.79572
 Alpha virt. eigenvalues --    2.81668   2.82716   2.84902   2.86859   2.87235
 Alpha virt. eigenvalues --    2.87495   2.89613   2.90066   2.90949   2.93111
 Alpha virt. eigenvalues --    2.94318   2.94486   2.95192   2.95703   2.98575
 Alpha virt. eigenvalues --    2.98995   3.01823   3.02542   3.04477   3.05944
 Alpha virt. eigenvalues --    3.07739   3.10917   3.12330   3.13250   3.16981
 Alpha virt. eigenvalues --    3.17893   3.20785   3.23269   3.24518   3.25674
 Alpha virt. eigenvalues --    3.26157   3.29305   3.30009   3.32332   3.33475
 Alpha virt. eigenvalues --    3.38973   3.40243   3.41706   3.42190   3.50779
 Alpha virt. eigenvalues --    3.53263   3.56000   3.59128   3.67675   3.76604
 Alpha virt. eigenvalues --    3.77934   3.80168   3.80660   3.81568   3.82831
 Alpha virt. eigenvalues --    3.83518   3.83706   3.84809   3.84960   3.85376
 Alpha virt. eigenvalues --    3.86355   3.87805   3.88055   3.90282   3.90546
 Alpha virt. eigenvalues --    3.93491   3.96074   3.98905   4.01631   4.12452
 Alpha virt. eigenvalues --    4.15461   4.21518   4.23673   4.25848   4.33725
 Alpha virt. eigenvalues --    4.37310   4.38571   4.38982   4.82426   4.83961
 Alpha virt. eigenvalues --    4.91990   4.92418   4.96083   5.02932   5.04275
 Alpha virt. eigenvalues --    5.07657   5.16350   5.21656   5.39317   5.39816
 Alpha virt. eigenvalues --    5.67440   5.74798   5.83949   6.03765  23.78203
 Alpha virt. eigenvalues --   23.85177  23.87555  23.88857  23.93299  23.94935
 Alpha virt. eigenvalues --   23.97527  24.00764  24.02211  24.02952  24.03279
 Alpha virt. eigenvalues --   24.08110  35.54520  35.68342  49.97020  50.02316
 Alpha virt. eigenvalues --   50.04971  50.11275
  Beta  occ. eigenvalues --  -19.66639 -19.61917 -19.61885 -19.61309 -14.83644
  Beta  occ. eigenvalues --  -14.71635 -10.67194 -10.59533 -10.59470 -10.59302
  Beta  occ. eigenvalues --  -10.55302 -10.53955 -10.53916 -10.53089 -10.52937
  Beta  occ. eigenvalues --  -10.52800 -10.52735 -10.52653  -1.24016  -1.21053
  Beta  occ. eigenvalues --   -1.15017  -1.14437  -0.99156  -0.97346  -0.92932
  Beta  occ. eigenvalues --   -0.85871  -0.84020  -0.81010  -0.79184  -0.78363
  Beta  occ. eigenvalues --   -0.78222  -0.75527  -0.69268  -0.68478  -0.66770
  Beta  occ. eigenvalues --   -0.62404  -0.60608  -0.58619  -0.58263  -0.56868
  Beta  occ. eigenvalues --   -0.56245  -0.54284  -0.53116  -0.52412  -0.51648
  Beta  occ. eigenvalues --   -0.51460  -0.50245  -0.50109  -0.48965  -0.47703
  Beta  occ. eigenvalues --   -0.47376  -0.47081  -0.46624  -0.46167  -0.45707
  Beta  occ. eigenvalues --   -0.43933  -0.43729  -0.43712  -0.43372  -0.42416
  Beta  occ. eigenvalues --   -0.41475  -0.41050  -0.39943  -0.39776  -0.39144
  Beta  occ. eigenvalues --   -0.38294  -0.37346  -0.34992  -0.34728  -0.33084
  Beta  occ. eigenvalues --   -0.30480
  Beta virt. eigenvalues --   -0.02422   0.05455   0.06092   0.07672   0.08029
  Beta virt. eigenvalues --    0.08340   0.09495   0.10070   0.10770   0.11365
  Beta virt. eigenvalues --    0.12430   0.13170   0.14503   0.14733   0.15743
  Beta virt. eigenvalues --    0.15879   0.15943   0.16517   0.16852   0.17431
  Beta virt. eigenvalues --    0.18217   0.18977   0.19459   0.20217   0.20433
  Beta virt. eigenvalues --    0.20618   0.21083   0.21859   0.22266   0.22987
  Beta virt. eigenvalues --    0.24148   0.24649   0.25711   0.26434   0.26987
  Beta virt. eigenvalues --    0.28664   0.29063   0.29487   0.29910   0.30537
  Beta virt. eigenvalues --    0.31150   0.32958   0.33346   0.34125   0.34821
  Beta virt. eigenvalues --    0.35899   0.36078   0.36774   0.37606   0.39015
  Beta virt. eigenvalues --    0.40935   0.41376   0.42242   0.43067   0.43691
  Beta virt. eigenvalues --    0.44937   0.45814   0.46040   0.46329   0.48485
  Beta virt. eigenvalues --    0.48804   0.49833   0.50538   0.50987   0.51689
  Beta virt. eigenvalues --    0.52507   0.52947   0.53906   0.54076   0.55425
  Beta virt. eigenvalues --    0.57702   0.58382   0.58766   0.59502   0.60048
  Beta virt. eigenvalues --    0.60541   0.61375   0.62496   0.62588   0.62772
  Beta virt. eigenvalues --    0.63858   0.64049   0.64845   0.65069   0.65165
  Beta virt. eigenvalues --    0.65710   0.66002   0.66270   0.66718   0.67560
  Beta virt. eigenvalues --    0.67816   0.68175   0.68534   0.69053   0.69395
  Beta virt. eigenvalues --    0.69590   0.70257   0.70964   0.72271   0.73104
  Beta virt. eigenvalues --    0.73949   0.74314   0.74609   0.74828   0.75013
  Beta virt. eigenvalues --    0.76578   0.78316   0.78935   0.80723   0.81362
  Beta virt. eigenvalues --    0.86165   0.87346   0.87902   0.88517   0.90684
  Beta virt. eigenvalues --    0.93998   0.94940   0.95395   0.95882   0.96030
  Beta virt. eigenvalues --    0.98292   0.98729   1.00041   1.00963   1.02847
  Beta virt. eigenvalues --    1.03700   1.03832   1.04937   1.07222   1.10582
  Beta virt. eigenvalues --    1.11826   1.12267   1.13572   1.14204   1.15621
  Beta virt. eigenvalues --    1.17654   1.20348   1.22116   1.24196   1.25113
  Beta virt. eigenvalues --    1.25835   1.26569   1.29644   1.31316   1.33404
  Beta virt. eigenvalues --    1.33832   1.35633   1.36422   1.37184   1.38297
  Beta virt. eigenvalues --    1.40733   1.43024   1.43456   1.44999   1.46598
  Beta virt. eigenvalues --    1.47091   1.47518   1.48204   1.48594   1.49196
  Beta virt. eigenvalues --    1.49325   1.49878   1.50192   1.50404   1.51022
  Beta virt. eigenvalues --    1.51930   1.52430   1.52528   1.54744   1.54902
  Beta virt. eigenvalues --    1.55446   1.55678   1.55780   1.57194   1.57869
  Beta virt. eigenvalues --    1.58841   1.59023   1.59862   1.59976   1.60367
  Beta virt. eigenvalues --    1.61044   1.62989   1.64538   1.65335   1.66309
  Beta virt. eigenvalues --    1.66584   1.66936   1.68583   1.69101   1.69224
  Beta virt. eigenvalues --    1.70461   1.70896   1.71036   1.71891   1.72395
  Beta virt. eigenvalues --    1.73774   1.74340   1.75075   1.75891   1.76289
  Beta virt. eigenvalues --    1.77339   1.78140   1.79245   1.79876   1.80265
  Beta virt. eigenvalues --    1.81481   1.82129   1.84500   1.86184   1.86311
  Beta virt. eigenvalues --    1.87900   1.88018   1.88695   1.89385   1.90005
  Beta virt. eigenvalues --    1.91236   1.92517   1.92738   1.93494   1.94208
  Beta virt. eigenvalues --    1.97305   1.97881   1.98769   2.00328   2.01561
  Beta virt. eigenvalues --    2.02648   2.03849   2.04622   2.06423   2.07411
  Beta virt. eigenvalues --    2.09408   2.09948   2.11086   2.11832   2.13686
  Beta virt. eigenvalues --    2.14561   2.15100   2.15798   2.17076   2.18522
  Beta virt. eigenvalues --    2.21537   2.22377   2.23876   2.24702   2.26419
  Beta virt. eigenvalues --    2.26630   2.26997   2.30712   2.32662   2.33016
  Beta virt. eigenvalues --    2.35254   2.37895   2.41347   2.41435   2.42006
  Beta virt. eigenvalues --    2.43002   2.44013   2.46159   2.46861   2.46999
  Beta virt. eigenvalues --    2.48719   2.48924   2.49929   2.50881   2.52626
  Beta virt. eigenvalues --    2.53164   2.53704   2.54608   2.55525   2.56252
  Beta virt. eigenvalues --    2.56619   2.56744   2.57407   2.57636   2.58422
  Beta virt. eigenvalues --    2.59058   2.59653   2.59834   2.60120   2.60624
  Beta virt. eigenvalues --    2.61430   2.62699   2.64253   2.65363   2.65778
  Beta virt. eigenvalues --    2.66707   2.67465   2.68691   2.70137   2.70574
  Beta virt. eigenvalues --    2.72682   2.72736   2.75427   2.77659   2.77749
  Beta virt. eigenvalues --    2.79800   2.81809   2.82731   2.85054   2.86928
  Beta virt. eigenvalues --    2.87351   2.87743   2.89865   2.90321   2.91664
  Beta virt. eigenvalues --    2.93402   2.94438   2.95217   2.95733   2.96332
  Beta virt. eigenvalues --    2.98705   2.99069   3.01919   3.03040   3.04630
  Beta virt. eigenvalues --    3.06686   3.08215   3.11159   3.12355   3.13257
  Beta virt. eigenvalues --    3.17110   3.17913   3.20827   3.23912   3.24518
  Beta virt. eigenvalues --    3.25891   3.26202   3.29341   3.30021   3.32398
  Beta virt. eigenvalues --    3.35430   3.39032   3.40384   3.41717   3.42243
  Beta virt. eigenvalues --    3.51375   3.53528   3.56097   3.59167   3.67722
  Beta virt. eigenvalues --    3.76849   3.77976   3.80172   3.80816   3.81613
  Beta virt. eigenvalues --    3.82888   3.83576   3.83900   3.84825   3.85005
  Beta virt. eigenvalues --    3.85385   3.86373   3.87893   3.88105   3.90360
  Beta virt. eigenvalues --    3.90670   3.93847   3.96378   3.98916   4.04235
  Beta virt. eigenvalues --    4.12478   4.15508   4.21649   4.23678   4.25871
  Beta virt. eigenvalues --    4.33721   4.37418   4.38959   4.39283   4.82472
  Beta virt. eigenvalues --    4.84697   4.92306   4.92726   4.96130   5.02936
  Beta virt. eigenvalues --    5.04574   5.11705   5.16406   5.22740   5.39328
  Beta virt. eigenvalues --    5.39821   5.67440   5.74800   5.83950   6.03978
  Beta virt. eigenvalues --   23.78170  23.85176  23.87512  23.88849  23.93297
  Beta virt. eigenvalues --   23.94937  23.97539  24.00774  24.02210  24.02965
  Beta virt. eigenvalues --   24.03291  24.08114  35.53921  35.68341  49.97006
  Beta virt. eigenvalues --   50.01592  50.04902  50.11276
          Condensed to atoms (all electrons):
               1          2          3          4          5          6
     1  O    7.993820   0.320416   0.005855   0.000019   0.000000  -0.049178
     2  H    0.320416   0.435263  -0.000259   0.000022  -0.000001  -0.001765
     3  C    0.005855  -0.000259   5.583514   0.195042  -0.083887   0.186704
     4  N    0.000019   0.000022   0.195042   6.899752   0.168811  -0.039344
     5  O    0.000000  -0.000001  -0.083887   0.168811   8.359419   0.006398
     6  C   -0.049178  -0.001765   0.186704  -0.039344   0.006398   5.355712
     7  C    0.253451  -0.040288  -0.047123  -0.009661   0.000142   0.308658
     8  C   -0.056293   0.010180   0.006707  -0.032361   0.006249  -0.102681
     9  C    0.003748  -0.000735  -0.099295   0.186447  -0.084199   0.013607
    10  C   -0.000100   0.000028   0.007991  -0.072727   0.003799  -0.002969
    11  C   -0.000141  -0.000001   0.322430  -0.073502   0.003215  -0.066730
    12  C   -0.000086   0.000007  -0.002354  -0.074793  -0.005767   0.001641
    13  C   -0.000033   0.000001   0.307225  -0.075545  -0.006190  -0.087789
    14  H   -0.000473   0.004735  -0.028734   0.004933  -0.000145   0.404550
    15  H    0.008173  -0.001113  -0.032898  -0.001126  -0.000287   0.403934
    16  H    0.004497  -0.000237  -0.001333   0.004647  -0.000138   0.010997
    17  H    0.006251  -0.000563   0.002791  -0.000885  -0.000296  -0.011876
    18  H   -0.000017   0.000002  -0.000100   0.006150   0.000437  -0.000044
    19  H   -0.000026   0.000000  -0.000012   0.001280  -0.000513   0.000267
    20  H    0.000004  -0.000001   0.000450  -0.007321   0.009414  -0.000100
    21  H   -0.000031   0.000000  -0.036372   0.001207  -0.000530  -0.008265
    22  H   -0.000017   0.000002  -0.042741   0.006086   0.000441  -0.003881
    23  H    0.000005  -0.000001  -0.033190  -0.006839   0.009920   0.008644
    24  H   -0.030133  -0.005291   0.004463  -0.001524  -0.000075  -0.060217
    25  H    0.000003  -0.000002   0.000052  -0.009799   0.011751  -0.000110
    26  H   -0.000023   0.000002  -0.000220   0.006451  -0.000157  -0.000069
    27  H   -0.000169   0.000024   0.001227  -0.001519  -0.000280  -0.001485
    28  H   -0.000014   0.000006  -0.035915   0.006411  -0.000159  -0.004699
    29  H    0.000005  -0.000001  -0.036613  -0.009664   0.012278   0.009158
    30  H   -0.000166  -0.000023  -0.030657  -0.001723  -0.000254  -0.007029
    31  O    0.000000   0.000000  -0.000001  -0.000066  -0.000248   0.000000
    32  O    0.000000   0.000000   0.000000   0.000000  -0.000002   0.000000
    33  N    0.000000   0.000000   0.000004  -0.000089   0.000686   0.000000
    34  C    0.000000   0.000000  -0.000536   0.006402  -0.060199   0.000004
    35  C    0.000000   0.000000   0.000063  -0.000119   0.001522   0.000000
    36  C    0.000000   0.000000   0.000003  -0.000036   0.000696   0.000000
    37  H    0.000000   0.000000   0.000499  -0.008709   0.021163  -0.000025
    38  H    0.000000   0.000000  -0.000013  -0.000003   0.000397   0.000000
    39  H    0.000000   0.000000  -0.000001   0.000016  -0.000301   0.000000
    40  H    0.000000   0.000000   0.000000   0.000001  -0.000078   0.000000
    41  H    0.000000   0.000000  -0.000003   0.000012  -0.000169   0.000000
    42  H    0.000000   0.000000   0.000000   0.000000   0.000392   0.000000
    43  H    0.000000   0.000000   0.000008  -0.000034   0.000568   0.000002
               7          8          9         10         11         12
     1  O    0.253451  -0.056293   0.003748  -0.000100  -0.000141  -0.000086
     2  H   -0.040288   0.010180  -0.000735   0.000028  -0.000001   0.000007
     3  C   -0.047123   0.006707  -0.099295   0.007991   0.322430  -0.002354
     4  N   -0.009661  -0.032361   0.186447  -0.072727  -0.073502  -0.074793
     5  O    0.000142   0.006249  -0.084199   0.003799   0.003215  -0.005767
     6  C    0.308658  -0.102681   0.013607  -0.002969  -0.066730   0.001641
     7  C    4.999456   0.289976  -0.046030   0.009084   0.008607  -0.008571
     8  C    0.289976   5.358279   0.195087  -0.071520  -0.003148  -0.084863
     9  C   -0.046030   0.195087   5.574474   0.330528   0.008411   0.302364
    10  C    0.009084  -0.071520   0.330528   5.013024  -0.000158  -0.086817
    11  C    0.008607  -0.003148   0.008411  -0.000158   5.017401  -0.000692
    12  C   -0.008571  -0.084863   0.302364  -0.086817  -0.000692   5.071920
    13  C   -0.008609   0.002338  -0.002983  -0.000659  -0.088037   0.000409
    14  H   -0.032626   0.009931  -0.001045   0.000078  -0.006127   0.000019
    15  H   -0.045740  -0.012048   0.002688  -0.000525  -0.007722   0.000243
    16  H   -0.031819   0.402985  -0.029063  -0.005648   0.000104  -0.004449
    17  H   -0.044487   0.405627  -0.035008  -0.007778  -0.000519   0.008378
    18  H    0.000237  -0.003917  -0.042583   0.410303   0.000017  -0.004508
    19  H   -0.000438  -0.008534  -0.036313   0.402117  -0.000120   0.009174
    20  H   -0.000471   0.009010  -0.034222   0.404126  -0.000005  -0.007895
    21  H   -0.000385   0.000280  -0.000029  -0.000119   0.402447   0.000057
    22  H    0.000198  -0.000019  -0.000106   0.000019   0.410455   0.000016
    23  H   -0.000382  -0.000115   0.000508  -0.000022   0.404622  -0.000017
    24  H    0.420067  -0.060118   0.004843  -0.000211  -0.000153   0.001865
    25  H   -0.000244   0.008805  -0.035775  -0.009983  -0.000145   0.401364
    26  H    0.000405  -0.004621  -0.036043  -0.004684   0.000025   0.406273
    27  H    0.002469  -0.006399  -0.031210   0.007637  -0.000039   0.402807
    28  H    0.000383  -0.000031  -0.000243   0.000027  -0.004642   0.000079
    29  H   -0.000252  -0.000109   0.000126  -0.000151  -0.009804   0.000614
    30  H    0.002317  -0.001470   0.001301  -0.000024   0.007580  -0.001977
    31  O    0.000000  -0.000001   0.000187  -0.000735   0.000000  -0.001812
    32  O    0.000000   0.000000   0.000000   0.000010   0.000000  -0.000001
    33  N    0.000000   0.000000   0.000007  -0.000026  -0.000009   0.000000
    34  C    0.000001   0.000004  -0.000572   0.000030  -0.000094   0.000096
    35  C    0.000000   0.000000   0.000008   0.000007  -0.000068  -0.000006
    36  C    0.000000   0.000001   0.000023   0.000115   0.000007  -0.000061
    37  H   -0.000006  -0.000025   0.000626  -0.000278  -0.000036  -0.000259
    38  H    0.000000   0.000000   0.000002   0.000003   0.000058   0.000000
    39  H    0.000000   0.000000  -0.000002   0.000000  -0.000001   0.000000
    40  H    0.000000   0.000000  -0.000012   0.000051   0.000000   0.000101
    41  H    0.000000   0.000000  -0.000001   0.000000  -0.000001   0.000000
    42  H    0.000000   0.000000  -0.000006   0.000000  -0.000014  -0.000015
    43  H    0.000000   0.000000   0.000004   0.000002   0.000042   0.000001
              13         14         15         16         17         18
     1  O   -0.000033  -0.000473   0.008173   0.004497   0.006251  -0.000017
     2  H    0.000001   0.004735  -0.001113  -0.000237  -0.000563   0.000002
     3  C    0.307225  -0.028734  -0.032898  -0.001333   0.002791  -0.000100
     4  N   -0.075545   0.004933  -0.001126   0.004647  -0.000885   0.006150
     5  O   -0.006190  -0.000145  -0.000287  -0.000138  -0.000296   0.000437
     6  C   -0.087789   0.404550   0.403934   0.010997  -0.011876  -0.000044
[...]
 017,0.00000045,-0.00000028,0.00000061,0.00000040,-0.00000262,0.0000008
 0,-0.00000114,0.00000051,0.00000176,-0.00000019,-0.00000027,0.00000011
 ,0.00000024,0.00000059,0.00000054,-0.00000062,0.00000126,0.00000102,0.
 ,0.,-0.00000008,0.00020650,-0.00027118,0.00000798,-0.00094705,0.000724
 09,-0.00060300,0.12016190,-0.04490061,-0.39040722,-0.00326086,-0.00320
 146,0.00003642,-0.00080838,0.00127221,0.00161521,0.00024375,0.00117197
 ,-0.00002542,0.00002969,0.00034968,0.00176207,0.00133204,-0.00726368,-
 0.01569759,-0.11733429,0.05195700,0.40368508,-0.00003053,0.00000358,0.
 00001882,0.00000118,-0.00000043,0.00000171,0.00002726,0.00004107,-0.00
 003616,0.00004069,-0.00000702,-0.00000710,-0.00007112,-0.00006975,0.00
 015436,-0.00000700,-0.00000719,-0.00000841,0.00002648,0.00000978,-0.00
 000237,-0.00000625,-0.00003447,-0.00000104,0.00002690,0.00002621,-0.00
 004082,0.00010485,-0.00003481,-0.00004610,-0.00001575,-0.00000181,-0.0
 0000218,-0.00006573,-0.00005243,-0.00010215,-0.00001490,-0.00001614,0.
 00001337,-0.00000765,-0.00000189,0.00000554,0.00000187,0.00000080,0.00
 000137,-0.00000102,0.00000237,-0.00000230,-0.00000226,-0.00000010,0.00
 001090,-0.00002360,0.00002473,0.00002810,-0.00003163,0.00001654,0.0000
 5359,-0.00008718,-0.00002062,-0.00013806,0.00000157,0.00000133,-0.0000
 0020,-0.00000120,-0.00000686,0.00000416,0.00000074,0.00000391,0.000000
 62,0.00000260,-0.00000156,-0.00000057,0.00023856,-0.00001701,-0.000008
 91,-0.00003441,0.00005836,0.00004173,-0.00006362,0.00003882,0.00003958
 ,-0.00000678,-0.00000742,-0.00000424,0.00000220,0.00000635,0.00000437,
 0.00000382,0.00000492,0.00000206,-0.04890003,-0.06882327,0.07035187,0.
 00009181,-0.00637575,-0.00055123,0.00006894,0.00082589,-0.00040066,-0.
 00183099,0.00301813,0.00293753,-0.00009293,0.00037479,-0.00024019,0.00
 623384,0.03566390,-0.02395035,-0.00035555,-0.00027097,0.00022855,-0.00
 020135,0.00020008,0.00003652,0.00000874,0.00011098,0.00000606,0.044360
 77,0.00003858,-0.00000348,-0.00002472,-0.00000151,-0.00000010,-0.00000
 139,-0.00003570,-0.00004704,0.00004114,-0.00003421,0.00000209,-0.00001
 013,0.00008109,0.00007346,-0.00013689,0.00001050,0.00000966,0.00000950
 ,-0.00003141,-0.00001523,0.00000250,0.00000989,0.00004482,0.00000016,-
 0.00003074,-0.00005100,0.00005360,-0.00011418,0.00003980,-0.00000759,0
 .00001818,0.00000329,0.00000152,0.00003877,0.00009862,0.00006553,0.000
 01781,0.00001952,-0.00001571,0.00000808,0.00000123,-0.00000663,-0.0000
 0260,-0.00000107,-0.00000234,0.00000205,-0.00000129,0.00000394,0.00000
 493,0.00000090,-0.00001337,0.00003829,-0.00003519,-0.00003830,0.000039
 31,-0.00001945,-0.00007604,0.00003376,0.00005221,0.00035345,-0.0000015
 9,-0.00000174,0.00000056,0.00000133,0.00000849,-0.00000486,-0.00000110
 ,-0.00000461,-0.00000015,-0.00000424,0.00000201,0.00000163,-0.00029024
 ,-0.00013204,0.00009344,0.00000595,-0.00003040,-0.00001530,0.00007569,
 -0.00002573,-0.00005439,0.00000762,0.00000903,0.00000449,-0.00000230,-
 0.00000874,-0.00000476,-0.00000680,-0.00000686,-0.00000135,-0.03606589
 ,-0.31364734,0.21267041,-0.00827415,0.00550716,0.00005139,-0.00055906,
 -0.00085542,0.00072490,0.00582032,0.00114475,-0.00157375,-0.00022143,0
 .00057365,-0.00042481,0.00416488,-0.03869457,0.02160438,-0.00031281,0.
 00053953,0.00026692,0.00040405,-0.00006683,-0.00018726,0.00000835,-0.0
 0021336,0.00005196,0.03531154,0.34572699,0.00000445,-0.00000099,-0.000
 00328,0.00000033,0.00000023,-0.00000007,0.00000083,-0.00000559,0.00000
 402,-0.00001892,0.00000250,0.00001444,0.00002120,0.00001861,-0.0000373
 6,0.00000003,0.00000040,0.00000150,-0.00000305,-0.00000173,0.00000171,
 0.00000668,0.00001021,0.00000660,-0.00000934,-0.00000343,-0.00001427,-
 0.00006372,-0.00002226,0.00001006,0.00000287,-0.00000043,0.00000160,-0
 .00003715,0.00001963,0.00003717,0.00000058,-0.00000029,-0.00000322,0.0
 0000175,0.00000059,-0.00000071,0.,-0.00000006,-0.00000115,0.00000172,-
 0.00000231,-0.00000012,-0.00000180,0.00000012,0.00000017,0.00002370,-0
 .00001836,-0.00003405,0.00000867,-0.00001270,-0.00001445,0.00003269,0.
 00006588,0.00006639,-0.00000077,-0.00000023,-0.00000122,-0.00000005,0.
 00000100,-0.00000062,0.00000023,-0.00000052,0.00000003,0.00000051,0.00
 000040,-0.00000127,0.00008665,0.00000013,-0.00007636,0.00001494,-0.000
 02377,-0.00000516,0.00000116,-0.00001536,0.00000445,0.00000146,0.00000
 077,0.00000082,0.00000169,0.00000250,-0.00000184,-0.00000003,0.0000011
 7,0.00000048,0.04996080,0.23962399,-0.20208765,0.00054716,-0.00181273,
 -0.00504694,-0.00007997,-0.00046166,0.00081623,0.00246997,-0.00012576,
 0.00218880,0.00012873,0.00034304,-0.00022245,-0.00477824,-0.00369762,0
 .00892813,-0.00026051,-0.00042220,0.00048879,0.00015714,-0.00006586,0.
 00007298,-0.00009544,0.00015980,-0.00000223,-0.04845356,-0.23346497,0.
 19494943,-0.00003453,0.00001621,0.00002467,0.00000437,-0.00000194,-0.0
 0000038,0.00006617,0.00009295,-0.00014851,0.00007422,0.00005379,0.0001
 8071,0.00013363,0.00014352,0.00070852,-0.00000256,-0.00001903,-0.00001
 485,0.00004246,-0.00001387,-0.00000894,0.00002692,0.00000988,-0.000007
 45,-0.00006155,-0.00012347,-0.00011247,-0.00003099,-0.00000104,0.00001
 366,-0.00003446,0.00000300,-0.00000378,0.00007359,0.00007811,-0.000033
 04,-0.00003242,-0.00006291,0.00004373,-0.00001536,0.00000113,0.0000092
 9,0.00000270,0.00000452,0.00000495,-0.00000988,0.00000833,0.00000486,-
 0.00000622,-0.00000282,0.00001553,0.00001595,0.00001269,-0.00000415,0.
 00000371,-0.00000122,0.00000666,-0.00003168,0.00003512,0.00000721,0.00
 000356,0.00000401,0.00000167,-0.00000332,-0.00001601,0.00000918,0.0000
 0066,0.00000903,-0.00000182,0.00000452,-0.00000086,-0.00000100,0.00002
 637,-0.00013481,0.00000090,-0.00004131,0.00005047,0.00001943,-0.000025
 76,0.00000110,0.00002066,-0.00003048,-0.00001423,-0.00000548,-0.000008
 81,0.00002623,0.00003580,0.00000279,0.00001057,0.00000120,0.00009295,0
 .00005400,0.00012725,-0.00011613,0.00047287,0.00040370,0.00322399,0.00
 023426,0.00086729,0.00319435,-0.00783217,-0.02532764,-0.05932386,0.015
 10427,0.05372743,0.00126705,0.00097060,-0.00156473,-0.00360064,-0.0030
 0116,-0.00183541,-0.00011445,0.00021656,-0.00016686,-0.00077299,0.0000
 7057,0.00061697,0.00005776,-0.00004495,-0.00003586,0.06142811,0.000016
 48,-0.00000336,-0.00001123,-0.00000093,0.00000036,-0.00000040,0.000001
 77,-0.00004125,0.00004676,-0.00001430,0.00013428,0.00001363,-0.0000010
 6,0.00015390,-0.00010737,0.00000471,0.00000889,0.00000485,-0.00001655,
 -0.00000121,0.00000369,-0.00000623,0.00001669,-0.00000522,-0.00002209,
 0.00000206,0.00003072,-0.00000926,-0.00001366,0.00002513,0.00001390,-0
 .00000320,-0.00000342,-0.00004252,-0.00000785,0.00004927,0.00001562,0.
 00001507,-0.00001874,0.00000591,0.00000015,-0.00000447,-0.00000077,-0.
 00000118,-0.00000154,0.00000079,-0.00000084,0.00000198,0.00000371,0.00
 000016,-0.00000749,0.00001107,-0.00001179,-0.00001470,0.00000379,-0.00
 000112,-0.00001402,0.00000220,0.00005421,0.00000438,-0.00000120,-0.000
 00054,0.00000048,-0.00000065,0.00000646,-0.00000125,0.00000063,-0.0000
 0246,-0.00000406,-0.00000173,0.00000060,0.00000052,-0.00002978,0.00007
 705,-0.00000934,0.00002413,-0.00002630,-0.00002531,0.00002271,-0.00000
 567,-0.00001458,0.00000601,0.00000615,0.00000493,0.00000712,0.00000095
 ,-0.00000528,-0.00000489,-0.00000222,0.00000008,-0.00001523,-0.0003138
 2,0.00048057,-0.00028197,0.00024267,0.00077837,0.00075807,0.00056636,0
 .00166618,0.00394991,-0.00718007,-0.01751161,0.01388237,-0.06325436,-0
 .05992757,0.00122877,0.00057497,-0.00291106,-0.00310224,-0.00119508,-0
 .00110111,-0.00013682,0.00005334,0.00005929,-0.00039435,0.00038614,0.0
 0025015,-0.00009343,-0.00005308,-0.00003046,-0.01195050,0.06546051,0.0
 0003034,-0.00001315,-0.00001905,-0.00000324,0.00000207,-0.00000041,-0.
 00005080,-0.00009774,0.00005834,-0.00005761,-0.00002101,-0.00013842,0.
 00023827,-0.00016231,-0.00032912,0.00001246,0.00002647,0.00001437,-0.0
 0003511,0.00000966,0.00000286,-0.00000121,-0.00000705,0.00002526,0.000
 03306,0.00010327,0.00003055,-0.00000732,-0.00001707,0.00003435,0.00002
 716,-0.00000120,0.00000717,-0.00002411,-0.00002759,0.00001676,0.000016
 75,0.00003907,-0.00002635,0.00001673,-0.00000249,-0.00001059,-0.000002
 00,-0.00000267,-0.00000244,0.00001003,-0.00001097,-0.00000633,0.000000
 23,0.00000254,-0.00000537,0.00000711,-0.00001996,-0.00001484,0.0000055
 1,0.00000182,-0.00001224,0.00000598,0.00005431,0.00001438,-0.00000262,
 -0.00000316,0.00000089,0.00000405,0.00001277,-0.00000882,0.00000006,-0
 .00000940,-0.00000072,-0.00000065,0.00000075,0.00000218,-0.00000624,0.
 00000448,-0.00002412,0.00001285,-0.00001922,0.00000978,0.00001600,-0.0
 0000164,-0.00001039,0.00002048,0.00000989,0.00000869,0.00001678,-0.000
 01196,-0.00002757,0.00000121,-0.00000713,-0.00000106,0.00007104,-0.000
 67109,0.00016442,-0.00069985,-0.00071869,0.00092299,-0.00006931,0.0011
 0510,0.00171167,0.00311707,-0.00441970,-0.01178071,0.05300324,-0.05978
 451,-0.28678070,0.00043871,0.00162920,-0.00099682,-0.00204474,-0.00154
 277,0.00062167,-0.00002147,0.00002510,-0.00005069,-0.00075628,0.000112
 80,-0.00021894,-0.00003848,0.00002636,-0.00004419,-0.05617401,0.068849
 17,0.31021536,-0.00004584,0.00001899,0.00003015,0.00000508,-0.00000200
 ,0.00000001,0.00005936,0.00012201,-0.00021847,0.00006332,-0.00002403,0
 .00018327,0.00000393,-0.00002963,0.00050311,-0.00000687,-0.00002369,-0
 .00002097,0.00005259,-0.00001653,-0.00000825,0.00000896,-0.00000090,-0
 .00001820,-0.00001133,-0.00016005,-0.00011776,-0.00000240,0.00000799,-
 0.00002574,-0.00004656,0.00000992,-0.00000400,-0.00009045,0.00014441,0
 .00008647,-0.00005887,-0.00003929,0.00012146,-0.00002058,0.00000245,0.
 00001422,0.00000388,0.00000496,0.00000497,-0.00001235,0.00001312,0.000
 00696,-0.00000044,-0.00000459,0.00001330,0.00000228,0.00002615,0.00001
 067,-0.00000947,-0.00000061,0.00002304,-0.00003283,-0.00001917,-0.0000
 2265,0.00000399,0.00000593,0.00000072,-0.00000361,-0.00002247,0.000011
 02,0.00000380,0.00001186,-0.00000486,0.00000227,-0.00000117,-0.0000025
 9,0.00026524,-0.00000156,0.00005865,-0.00003121,0.00004895,-0.00002396
 ,-0.00004711,-0.00001956,0.00000789,-0.00003583,-0.00002818,-0.0000271
 0,0.00025331,0.00008573,-0.00013386,0.00000487,0.00002157,-0.00001240,
 0.00112282,0.00026717,-0.00012139,0.00037198,-0.00050360,-0.00011060,-
 0.00665688,-0.00258919,-0.00327464,-0.01670557,0.01418645,0.00326929,-
 0.24161659,0.12251746,0.00781573,-0.00202939,0.00196883,0.00018162,0.0
 0046430,0.00002557,-0.00001940,0.00049015,-0.00037936,0.00060556,0.000
 63685,0.00003294,-0.00037179,0.00035768,-0.00017719,0.00017909,-0.0036
 0203,0.00158266,-0.00015653,0.26215598,-0.00001277,-0.00000908,0.00001
 152,-0.00000142,0.00000160,0.00000033,0.00000786,-0.00001739,0.0000651
 4,0.00005722,-0.00001729,-0.00018060,-0.00015123,-0.00027697,-0.000222
 60,-0.00000775,0.00000666,0.00000051,0.00000853,0.00002370,-0.00000795
 ,0.00003679,-0.00004165,0.00004730,-0.00006974,0.00015873,0.00000844,0
 .00003571,-0.00003333,-0.00000268,0.00000605,-0.00000600,0.00000107,0.
 00026157,-0.00024880,-0.00035785,0.00000046,0.00002963,-0.00003722,0.0
 0000261,-0.00000452,-0.00000074,0.00000051,-0.00000427,-0.00000170,0.0
 0000706,-0.00000888,-0.00001203,-0.00001917,0.00000494,0.00002386,-0.0
 0001464,-0.00000029,0.00001053,0.00000376,0.00001095,0.00002270,-0.000
 02475,0.00000942,-0.00000747,-0.00000039,-0.00000228,-0.00000199,0.000
 00152,0.00000382,-0.00000164,0.00000397,-0.00000545,0.00000230,0.00000
 566,0.00000037,0.00000150,0.00008018,-0.00029838,-0.00016850,-0.000057
 92,0.00003936,0.00009890,-0.00006870,0.00005940,0.00007851,0.00001615,
 -0.00000098,0.00000337,0.00009522,0.00000034,-0.00006789,0.00001039,-0
 .00000455,0.00000604,-0.00029126,-0.00075882,-0.00017273,0.00015422,-0
 .00000745,-0.00033802,-0.00434241,-0.00044291,-0.00165436,-0.01327610,
 0.00997212,0.00228750,0.12526355,-0.12530807,-0.00551029,-0.00067958,0
 .00058202,0.00091563,0.00064390,0.00056137,0.00012127,-0.00019613,-0.0
 0003487,-0.00008017,0.00004137,-0.00008849,-0.00012527,0.00011627,-0.0
 0017305,-0.00001925,0.00423303,-0.00404298,0.00063070,-0.13420974,0.13
 333161,-0.00006780,0.00002526,0.00004717,0.00000713,-0.00000306,0.0000
 0018,0.00009485,0.00018778,-0.00019148,0.00026866,-0.00005134,0.000035
 61,0.00010697,0.00005213,0.00089572,-0.00001643,-0.00004305,-0.0000233
 3,0.00007592,-0.00001690,-0.00001341,0.00003490,0.00000208,-0.00000763
 ,-0.00009633,-0.00017951,-0.00015312,-0.00002771,0.00000618,-0.0000247
 8,-0.00006093,0.00000122,-0.00001163,0.00023501,0.00012810,-0.00032899
 ,-0.00005879,-0.00014606,0.00002575,-0.00002902,0.00000177,0.00001833,
 0.00000375,0.00000702,0.00000711,-0.00001320,0.00001675,0.00000657,-0.
 00001184,-0.00000393,0.00002803,0.00000215,0.00003317,0.00001703,0.000
 00239,0.00000005,0.00002459,-0.00002649,-0.00001788,0.00000995,0.00000
 642,0.00000705,0.,-0.00000454,-0.00002681,0.00001649,0.00000041,0.0000
 1760,0.00000089,0.00000725,-0.00000198,-0.00000197,0.00004445,-0.00045
 117,0.00018915,-0.00009306,0.00009013,0.00006245,-0.00006536,0.0000247
 1,0.00005877,-0.00004563,-0.00001754,-0.00000627,-0.00021204,0.0000213
 5,0.00022739,0.00000199,0.00001274,0.00000807,0.00002469,0.00016682,-0
 .00016407,0.00005467,-0.00007894,0.00006983,-0.00376250,-0.00120696,0.
 00001954,-0.00843291,0.00871424,-0.00027733,0.00907177,-0.00657657,-0.
 04699454,0.00016323,0.00019583,0.00017573,0.00029060,0.00039110,0.0001
 6928,0.00048343,-0.00040377,0.00032289,-0.00044809,-0.00004444,-0.0001
 5279,0.00010209,-0.00003959,0.00001743,0.02567925,-0.01566673,0.001071
 12,-0.00809722,0.00654068,0.04477496,-0.00000175,-0.00000346,0.0000017
 3,-0.00000066,0.00000050,0.00000027,0.00001228,-0.00000714,0.00000360,
 0.00003762,0.00004020,-0.00006152,-0.00004300,-0.00027527,-0.00028310,
 -0.00000456,0.00000016,-0.00000041,0.00000305,0.00000626,-0.00000233,0
 .00001213,-0.00000420,0.00001235,-0.00003426,0.00002663,0.00000642,-0.
 00000636,-0.00000988,0.00000637,-0.00000873,0.00001068,0.00000246,0.00
 003854,0.00001666,-0.00004467,-0.00000835,0.00002901,0.00001907,0.0000
 0063,-0.00000087,-0.00000016,0.00000055,-0.00000182,-0.00000110,0.0000
 0141,-0.00000098,-0.00000327,-0.00000394,0.00000164,0.00000711,-0.0000
 0062,-0.00000082,-0.00000050,0.00000484,0.00000131,0.00000039,-0.00000
 486,0.00001339,0.00000748,0.00000236,-0.00000187,-0.00000366,0.0000003
 4,-0.00000047,0.00000064,0.00001173,-0.00001477,-0.00001084,0.00000152
 ,0.00000028,0.00000028,0.00003385,-0.00008732,-0.00004171,-0.00002242,
 0.00001790,0.00002836,-0.00001266,0.00000415,0.00000790,0.00000452,-0.
 00000348,-0.00000282,0.00002784,0.00001500,-0.00007175,0.00000497,-0.0
 0000165,-0.00000170,0.00129140,-0.00057494,0.00042994,-0.00016717,-0.0
 0098802,0.00215150,0.00305201,0.00015047,0.00073752,-0.00740051,-0.024
 49756,0.01208962,-0.04871398,-0.02730453,0.01995959,-0.00443160,0.0008
 5220,-0.00468382,0.00089661,0.00114073,0.00032876,-0.00080033,0.000485
 53,-0.00043890,-0.00012095,-0.00009542,0.00010859,0.00019321,0.0000711
 1,0.00018339,-0.00184643,-0.00541580,0.00304645,0.00473357,0.02233016,
 -0.01519213,0.05326813,-0.00002181,0.00001732,0.00001238,0.00000464,-0
 .00000294,-0.00000012,0.00010031,0.00009798,-0.00007309,0.00009545,0.0
 0025332,0.00018391,-0.00023832,0.00014905,0.00039133,-0.00000924,-0.00
 002990,-0.00001424,0.00003170,-0.00002245,-0.00000117,-0.00000004,0.00
 005337,-0.00004856,-0.00008350,-0.00019737,-0.00001551,-0.00005288,0.0
 0002465,0.00000242,-0.00003065,0.00000089,-0.00001278,-0.00002196,0.00
 009356,0.00007283,-0.00002765,-0.00004997,0.00003470,-0.00001832,0.000
 00436,0.00001037,0.00000192,0.00000381,0.00000239,-0.00001735,0.000017
 27,0.00001555,0.00000526,-0.00000425,-0.00000308,0.00001538,0.00001348
 ,-0.00000332,0.00000402,-0.00000925,-0.00001291,0.00001196,0.00000133,
 0.00003365,0.00000307,0.00000341,-0.00000122,-0.00000445,-0.00001676,0
 .00000847,0.00003937,0.00002327,-0.00006026,-0.00000187,-0.00000053,-0
 .00000301,-0.00005051,0.00001167,0.00003653,0.00000408,0.00000276,-0.0
 0004954,0.00001781,-0.00001108,-0.00001638,-0.00002671,-0.00000976,-0.
 00001050,0.00004561,0.00002975,0.00003627,-0.00000810,0.00000721,-0.00
 000124,0.00023234,-0.00115030,0.00050003,-0.00068259,-0.00074885,0.001
 75446,0.00129262,0.00188004,-0.00039048,-0.00234546,-0.01716674,0.0089
 2590,-0.02860519,-0.23616440,0.12373730,-0.00172796,0.00142909,-0.0042
 2261,0.00034271,0.00044515,0.00010361,-0.00076082,0.00049338,-0.000066
 12,-0.00002325,-0.00002393,-0.00001528,-0.00001747,0.00023046,-0.00004
 243,0.00130419,0.00840109,-0.00507301,-0.00285263,-0.01295926,0.008332
 44,0.03407631,0.25488007,-0.00001092,0.00000730,0.00000703,0.00000166,
 -0.00000097,-0.00000014,0.00000280,0.00004739,-0.00003882,0.00000435,-
 0.00004423,0.00003063,-0.00009376,0.00018413,-0.00033626,-0.00000670,-
 0.00000997,-0.00000775,0.00001381,-0.00000900,-0.00000131,0.00000156,0
 .00001362,-0.00001139,-0.00000250,-0.00005013,0.00001773,-0.00001447,0
 .00001453,-0.00000362,0.00000346,-0.00002879,-0.00001554,0.00001399,0.
 00001920,0.00001300,-0.00000783,-0.00003540,-0.00000649,-0.00000734,0.
 00000170,0.00000536,0.00000121,0.00000216,0.00000109,-0.00000557,0.000
 00372,0.00000494,0.00000069,-0.00000145,0.00000047,0.00000165,0.000006
 35,0.00000149,0.00000053,-0.00000247,-0.00000155,0.00000177,-0.0000041
 4,0.00001115,-0.00000442,0.00000368,0.00000451,-0.00000020,-0.00000621
 ,0.00000245,0.00000483,0.00006675,0.00000791,-0.00000019,-0.00000024,-
 0.00000103,-0.00001293,-0.00001462,0.00001436,-0.00000249,0.00000604,-
 0.00000626,0.00000066,-0.00000187,-0.00000194,-0.00000913,-0.00000256,
 -0.00000312,-0.00007753,0.00002987,0.00006753,-0.00000336,0.00000301,0
 .00000193,0.00046567,-0.00063150,0.00025809,-0.00028917,-0.00060527,0.
 00167798,0.00166209,-0.00050484,0.00034075,-0.00383092,-0.01387239,0.0
 0663729,0.01959230,0.12577847,-0.12622479,-0.00266471,-0.00019930,-0.0
 0210151,0.00086564,0.00021847,0.00087831,0.00029748,0.00035817,-0.0000
 5512,-0.00016972,0.00002201,-0.00003485,-0.00000782,0.00007650,-0.0000
 1261,0.00291584,0.02512681,-0.01442290,-0.00033486,-0.00190682,0.00005
 130,-0.01829542,-0.13405771,0.13325168\\-0.00000031,-0.00000039,-0.000
 00192,-0.00000136,0.00000173,-0.00000158,0.00000249,0.00000120,0.00000
 248,-0.00000283,0.00000244,-0.00000081,-0.00000011,0.00000027,-0.00000
 002,0.00000014,0.00000086,-0.00000003,-0.00000055,0.00000214,-0.000001
 19,-0.00000089,0.00000158,-0.00000330,-0.00000009,-0.00000055,0.000001
 45,-0.00000138,-0.00000003,-0.00000181,0.00000107,0.00000108,0.0000026
 4,-0.00000085,-0.00000148,-0.00000350,0.00000029,-0.00000154,0.0000009
 3,0.00000035,0.00000106,0.00000066,-0.00000034,0.00000295,0.00000034,-
 0.00000180,0.00000062,-0.00000304,-0.00000075,0.00000266,-0.00000172,-
 0.00000185,0.00000179,-0.00000334,-0.00000077,0.00000278,-0.00000234,0
 .00000023,0.00000125,-0.00000290,0.00000065,0.00000314,0.00000218,0.00
 000128,0.00000189,0.00000323,0.00000149,0.00000173,0.00000293,-0.00000
 069,-0.00000089,-0.00000115,-0.00000069,-0.00000163,-0.00000094,-0.000
 00092,-0.00000141,-0.00000282,-0.00000077,-0.00000212,-0.00000147,0.00
 000125,-0.00000110,0.00000247,0.00000136,-0.00000135,0.00000248,0.0000
 0058,-0.00000103,0.00000097,-0.00000311,-0.00000019,-0.00000059,-0.000
 00317,-0.00000172,0.00000193,0.00000127,0.00000366,0.00000337,-0.00000
 127,-0.00000597,-0.00000089,0.00000083,0.00000199,0.00000790,0.0000042
 2,-0.00000251,-0.00000479,0.00000380,0.00000116,0.00000112,0.00000173,
 0.00000024,0.00000368,0.00000139,-0.00000245,0.00000154,-0.00000106,-0
 .00000232,-0.00000143,-0.00000127,-0.00000352,0.00000164,-0.00000005,-
 0.00000181,-0.00000286,0.00000245,-0.00000425,0.00000051\\\@


 ALL MEN WHO EXPLORE
 DEPLORE
 THAT FRUSTRATING HURDLE
 THE GIRDLE.

         -- COLIN FLETCHER
 Job cpu time:       0 days 14 hours 26 minutes  0.6 seconds.
 Elapsed time:       0 days  1 hours 48 minutes 32.0 seconds.
 File lengths (MBytes):  RWF=   1814 Int=      0 D2E=      0 Chk=     38 Scr=      1
 Normal termination of Gaussian 16 at Fri Dec 25 03:30:44 2020.
