 Entering Gaussian System, Link 0=g16
 Input=Tem_Ala_Cb_4.gjf
 Output=Tem_Ala_Cb_4.log
 Initial command:
 /share/apps/g16/l1.exe "/backup/38178.cluster.hpc/Gau-72310.inp" -scrdir="/backup/38178.cluster.hpc/"
 Entering Link 1 = /share/apps/g16/l1.exe PID=     72311.
  
 Copyright (c) 1988,1990,1992,1993,1995,1998,2003,2009,2016,
            Gaussian, Inc.  All Rights Reserved.
  
 This is part of the Gaussian(R) 16 program.  It is based on
 the Gaussian(R) 09 system (copyright 2009, Gaussian, Inc.),
 the Gaussian(R) 03 system (copyright 2003, Gaussian, Inc.),
 the Gaussian(R) 98 system (copyright 1998, Gaussian, Inc.),
 the Gaussian(R) 94 system (copyright 1995, Gaussian, Inc.),
 the Gaussian 92(TM) system (copyright 1992, Gaussian, Inc.),
 the Gaussian 90(TM) system (copyright 1990, Gaussian, Inc.),
 the Gaussian 88(TM) system (copyright 1988, Gaussian, Inc.),
 the Gaussian 86(TM) system (copyright 1986, Carnegie Mellon
 University), and the Gaussian 82(TM) system (copyright 1983,
 Carnegie Mellon University). Gaussian is a federally registered
 trademark of Gaussian, Inc.
  
 This software contains proprietary and confidential information,
 including trade secrets, belonging to Gaussian, Inc.
  
 This software is provided under written license and may be
 used, copied, transmitted, or stored only in accord with that
 written license.
  
 The following legend is applicable only to US Government
 contracts under FAR:
  
                    RESTRICTED RIGHTS LEGEND
  
 Use, reproduction and disclosure by the US Government is
 subject to restrictions as set forth in subparagraphs (a)
 and (c) of the Commercial Computer Software - Restricted
 Rights clause in FAR 52.227-19.
  
 Gaussian, Inc.
 340 Quinnipiac St., Bldg. 40, Wallingford CT 06492
  
  
 ---------------------------------------------------------------
 Warning -- This program may not be used in any manner that
 competes with the business of Gaussian, Inc. or will provide
 assistance to any competitor of Gaussian, Inc.  The licensee
 of this program is prohibited from giving any competitor of
 Gaussian, Inc. access to this program.  By using this program,
 the user acknowledges that Gaussian, Inc. is engaged in the
 business of creating and licensing software in the field of
 computational chemistry and represents and warrants to the
 licensee that it is not a competitor of Gaussian, Inc. and that
 it will not use this program in any manner prohibited above.
 ---------------------------------------------------------------
  

 Cite this work as:
 Gaussian 16, Revision A.03,
 M. J. Frisch, G. W. Trucks, H. B. Schlegel, G. E. Scuseria, 
 M. A. Robb, J. R. Cheeseman, G. Scalmani, V. Barone, 
 G. A. Petersson, H. Nakatsuji, X. Li, M. Caricato, A. V. Marenich, 
 J. Bloino, B. G. Janesko, R. Gomperts, B. Mennucci, H. P. Hratchian, 
 J. V. Ortiz, A. F. Izmaylov, J. L. Sonnenberg, D. Williams-Young, 
 F. Ding, F. Lipparini, F. Egidi, J. Goings, B. Peng, A. Petrone, 
 T. Henderson, D. Ranasinghe, V. G. Zakrzewski, J. Gao, N. Rega, 
 G. Zheng, W. Liang, M. Hada, M. Ehara, K. Toyota, R. Fukuda, 
 J. Hasegawa, M. Ishida, T. Nakajima, Y. Honda, O. Kitao, H. Nakai, 
 T. Vreven, K. Throssell, J. A. Montgomery, Jr., J. E. Peralta, 
 F. Ogliaro, M. J. Bearpark, J. J. Heyd, E. N. Brothers, K. N. Kudin, 
 V. N. Staroverov, T. A. Keith, R. Kobayashi, J. Normand, 
 K. Raghavachari, A. P. Rendell, J. C. Burant, S. S. Iyengar, 
 J. Tomasi, M. Cossi, J. M. Millam, M. Klene, C. Adamo, R. Cammi, 
 J. W. Ochterski, R. L. Martin, K. Morokuma, O. Farkas, 
 J. B. Foresman, and D. J. Fox, Gaussian, Inc., Wallingford CT, 2016.
 
 ******************************************
 Gaussian 16:  ES64L-G16RevA.03 25-Dec-2016
                24-Apr-2021 
 ******************************************
 %mem=2GB
 %nprocshared=16
 Will use up to   16 processors via shared memory.
 %chk=Tem_Ala_Cb_4.chk
 -------------------------------------------------------------
 # opt=calcall freq 6-311g(d,p) scrf=(solvent=water,pcm) m062x
 -------------------------------------------------------------
 1/10=4,18=20,19=15,26=3,38=1/1,3;
 2/9=110,12=2,17=6,18=5,40=1/2;
 3/5=4,6=6,7=101,11=2,25=1,30=1,70=2201,71=2,72=1,74=-55,140=1/1,2,3;
 4//1;
 5/5=2,38=5,53=1/2;
 8/6=4,10=90,11=11/1;
 11/6=1,8=1,9=11,15=111,16=1/1,2,10;
 10/6=1/2;
 6/7=2,8=2,9=2,10=2,18=1,28=1/1;
 7/10=1,25=1/1,2,3,16;
 1/10=4,18=20,19=15,26=3/3(3);
 2/9=110/2;
 7/8=1,9=1,25=1,44=-1/16;
 99//99;
 2/9=110/2;
 3/5=4,6=6,7=101,11=2,25=1,30=1,70=2205,71=2,72=1,74=-55,140=1/1,2,3;
 4/5=5,16=3,69=1/1;
 5/5=2,38=5,53=1/2;
 8/6=4,10=90,11=11/1;
 11/6=1,8=1,9=11,15=111,16=1/1,2,10;
 10/6=1/2;
 7/10=1,25=1/1,2,3,16;
 1/10=4,18=20,19=15,26=3/3(-8);
 2/9=110/2;
 6/7=2,8=2,9=2,10=2,18=1,19=2,28=1/1;
 7/8=1,9=1,25=1,44=-1/16;
 99//99;
 -------------------
 Title Card Required
 -------------------
 Symbolic Z-matrix:
 Charge =  0 Multiplicity = 2
 O                    0    -4.7842   -1.35204   0.52775  L 
 H                    0    -4.77006  -2.22812   0.9246   L 
 C                    0    -1.07528  -1.07366  -0.25132  L 
 N                    0    -1.14141   0.38578  -0.56113  L 
 O                    0    -0.04998   0.93238  -0.91701  L 
 C                    0    -2.49326  -1.65218  -0.21495  L 
 C                    0    -3.47036  -0.81496   0.59874  L 
 C                    0    -3.53993   0.57917   0.00574  L 
 C                    0    -2.19028   1.30197  -0.02329  L 
 C                    0    -2.28069   2.50106  -0.96713  L 
 C                    0    -0.2825   -1.74132  -1.3751   L 
 C                    0    -1.76675   1.78378   1.37215  L 
 C                    0    -0.34377  -1.27762   1.0855   L 
 H                    0    -2.43477  -2.66885   0.18666  L 
 H                    0    -2.88819  -1.72106  -1.23419  L 
 H                    0    -4.24868   1.19057   0.57026  L 
 H                    0    -3.9244    0.4843   -1.0156   L 
 H                    0    -3.11003   3.13705  -0.65122  L 
 H                    0    -2.46425   2.1672   -1.99026  L 
 H                    0    -1.36021   3.08225  -0.94526  L 
 H                    0    -0.72487  -1.50642  -2.34523  L 
 H                    0    -0.30586  -2.82309  -1.22996  L 
 H                    0     0.75453  -1.40674  -1.37314  L 
 H                    0    -3.15264  -0.76582   1.64704  L 
 H                    0    -0.74594   2.16974   1.33231  L 
 H                    0    -2.43122   2.58988   1.69043  L 
 H                    0    -1.81208   0.99277   2.12062  L 
 H                    0    -0.05363  -2.32671   1.17783  L 
 H                    0     0.55577  -0.65915   1.11982  L 
 H                    0    -0.9672   -1.02693   1.94396  L 
 O                    0     1.31283   4.22576  -3.48462  H 
 O                    0    -0.05445   4.50324  -1.73863  H 
 N                    0     1.94701   3.92268   0.03057  H 
 C                    0     2.1387    3.5668   -1.36852  H 
 C                    0     2.19374   2.05605  -1.64863  H 
 C                    0     1.01159   4.16351  -2.1811   H 
 H                    0     3.06736   4.02114  -1.72771  H 
 H                    0     2.58034   3.3541    0.58799  H 
 H                    0     0.9971    3.68232   0.30051  H 
 H                    0     0.53698   4.55969  -3.95759  H 
 H                    0     1.25539   1.58611  -1.34266  H 
 H                    0     2.36252   1.85361  -2.70786  H 
 H                    0     3.0094    1.62446  -1.06654  H 
 
 Add virtual bond connecting atoms H41        and O5         Dist= 2.87D+00.

 GradGradGradGradGradGradGradGradGradGradGradGradGradGradGradGradGradGrad
 Berny optimization.
 Initialization pass.
                           ----------------------------
                           !    Initial Parameters    !
                           ! (Angstroms and Degrees)  !
 --------------------------                            --------------------------
 ! Name  Definition              Value          Derivative Info.                !
 --------------------------------------------------------------------------------
 ! R1    R(1,2)                  0.9619         calculate D2E/DX2 analytically  !
 ! R2    R(1,7)                  1.4212         calculate D2E/DX2 analytically  !
 ! R3    R(3,4)                  1.4934         calculate D2E/DX2 analytically  !
 ! R4    R(3,6)                  1.5319         calculate D2E/DX2 analytically  !
 ! R5    R(3,11)                 1.5288         calculate D2E/DX2 analytically  !
 ! R6    R(3,13)                 1.5375         calculate D2E/DX2 analytically  !
 ! R7    R(4,5)                  1.2715         calculate D2E/DX2 analytically  !
 ! R8    R(4,9)                  1.4929         calculate D2E/DX2 analytically  !
 ! R9    R(5,41)                 1.5207         calculate D2E/DX2 analytically  !
 ! R10   R(6,7)                  1.5224         calculate D2E/DX2 analytically  !
 ! R11   R(6,14)                 1.0947         calculate D2E/DX2 analytically  !
 ! R12   R(6,15)                 1.0952         calculate D2E/DX2 analytically  !
 ! R13   R(7,8)                  1.5166         calculate D2E/DX2 analytically  !
 ! R14   R(7,24)                 1.0965         calculate D2E/DX2 analytically  !
 ! R15   R(8,9)                  1.5313         calculate D2E/DX2 analytically  !
 ! R16   R(8,16)                 1.0931         calculate D2E/DX2 analytically  !
 ! R17   R(8,17)                 1.0954         calculate D2E/DX2 analytically  !
 ! R18   R(9,10)                 1.5287         calculate D2E/DX2 analytically  !
 ! R19   R(9,12)                 1.5358         calculate D2E/DX2 analytically  !
 ! R20   R(10,18)                1.0918         calculate D2E/DX2 analytically  !
 ! R21   R(10,19)                1.0918         calculate D2E/DX2 analytically  !
 ! R22   R(10,20)                1.0888         calculate D2E/DX2 analytically  !
 ! R23   R(11,21)                1.0918         calculate D2E/DX2 analytically  !
 ! R24   R(11,22)                1.0917         calculate D2E/DX2 analytically  !
 ! R25   R(11,23)                1.0897         calculate D2E/DX2 analytically  !
 ! R26   R(12,25)                1.0921         calculate D2E/DX2 analytically  !
 ! R27   R(12,26)                1.0921         calculate D2E/DX2 analytically  !
 ! R28   R(12,27)                1.0899         calculate D2E/DX2 analytically  !
 ! R29   R(13,28)                1.0924         calculate D2E/DX2 analytically  !
 ! R30   R(13,29)                1.0922         calculate D2E/DX2 analytically  !
 ! R31   R(13,30)                1.0902         calculate D2E/DX2 analytically  !
 ! R32   R(31,36)                1.3393         calculate D2E/DX2 analytically  !
 ! R33   R(31,40)                0.9681         calculate D2E/DX2 analytically  !
 ! R34   R(32,36)                1.2032         calculate D2E/DX2 analytically  !
 ! R35   R(33,34)                1.4563         calculate D2E/DX2 analytically  !
 ! R36   R(33,38)                1.0174         calculate D2E/DX2 analytically  !
 ! R37   R(33,39)                1.0163         calculate D2E/DX2 analytically  !
 ! R38   R(34,35)                1.5375         calculate D2E/DX2 analytically  !
 ! R39   R(34,36)                1.5122         calculate D2E/DX2 analytically  !
 ! R40   R(34,37)                1.0945         calculate D2E/DX2 analytically  !
 ! R41   R(35,41)                1.0931         calculate D2E/DX2 analytically  !
 ! R42   R(35,42)                1.0915         calculate D2E/DX2 analytically  !
 ! R43   R(35,43)                1.0911         calculate D2E/DX2 analytically  !
 ! A1    A(2,1,7)              108.0599         calculate D2E/DX2 analytically  !
 ! A2    A(4,3,6)              109.4506         calculate D2E/DX2 analytically  !
 ! A3    A(4,3,11)             107.2928         calculate D2E/DX2 analytically  !
 ! A4    A(4,3,13)             109.3346         calculate D2E/DX2 analytically  !
 ! A5    A(6,3,11)             109.4228         calculate D2E/DX2 analytically  !
 ! A6    A(6,3,13)             111.6955         calculate D2E/DX2 analytically  !
 ! A7    A(11,3,13)            109.5413         calculate D2E/DX2 analytically  !
 ! A8    A(3,4,5)              116.1144         calculate D2E/DX2 analytically  !
 ! A9    A(3,4,9)              123.7864         calculate D2E/DX2 analytically  !
 ! A10   A(5,4,9)              116.1101         calculate D2E/DX2 analytically  !
 ! A11   A(3,6,7)              113.5215         calculate D2E/DX2 analytically  !
 ! A12   A(3,6,14)             108.0582         calculate D2E/DX2 analytically  !
 ! A13   A(3,6,15)             109.5984         calculate D2E/DX2 analytically  !
 ! A14   A(7,6,14)             110.4231         calculate D2E/DX2 analytically  !
 ! A15   A(7,6,15)             107.4905         calculate D2E/DX2 analytically  !
 ! A16   A(14,6,15)            107.5942         calculate D2E/DX2 analytically  !
 ! A17   A(1,7,6)              111.0275         calculate D2E/DX2 analytically  !
 ! A18   A(1,7,8)              106.5862         calculate D2E/DX2 analytically  !
 ! A19   A(1,7,24)             109.4251         calculate D2E/DX2 analytically  !
 ! A20   A(6,7,8)              109.0246         calculate D2E/DX2 analytically  !
 ! A21   A(6,7,24)             110.4666         calculate D2E/DX2 analytically  !
 ! A22   A(8,7,24)             110.238          calculate D2E/DX2 analytically  !
 ! A23   A(7,8,9)              113.6335         calculate D2E/DX2 analytically  !
 ! A24   A(7,8,16)             109.9969         calculate D2E/DX2 analytically  !
 ! A25   A(7,8,17)             107.5207         calculate D2E/DX2 analytically  !
 ! A26   A(9,8,16)             108.4973         calculate D2E/DX2 analytically  !
 ! A27   A(9,8,17)             109.424          calculate D2E/DX2 analytically  !
 ! A28   A(16,8,17)            107.6013         calculate D2E/DX2 analytically  !
 ! A29   A(4,9,8)              109.6564         calculate D2E/DX2 analytically  !
 ! A30   A(4,9,10)             107.4874         calculate D2E/DX2 analytically  !
 ! A31   A(4,9,12)             109.0326         calculate D2E/DX2 analytically  !
 ! A32   A(8,9,10)             109.2584         calculate D2E/DX2 analytically  !
 ! A33   A(8,9,12)             111.957          calculate D2E/DX2 analytically  !
 ! A34   A(10,9,12)            109.3434         calculate D2E/DX2 analytically  !
 ! A35   A(9,10,18)            108.8563         calculate D2E/DX2 analytically  !
 ! A36   A(9,10,19)            110.4075         calculate D2E/DX2 analytically  !
 ! A37   A(9,10,20)            110.8731         calculate D2E/DX2 analytically  !
 ! A38   A(18,10,19)           108.7575         calculate D2E/DX2 analytically  !
 ! A39   A(18,10,20)           108.9898         calculate D2E/DX2 analytically  !
 ! A40   A(19,10,20)           108.9161         calculate D2E/DX2 analytically  !
 ! A41   A(3,11,21)            110.4319         calculate D2E/DX2 analytically  !
 ! A42   A(3,11,22)            108.9003         calculate D2E/DX2 analytically  !
 ! A43   A(3,11,23)            110.984          calculate D2E/DX2 analytically  !
 ! A44   A(21,11,22)           108.8234         calculate D2E/DX2 analytically  !
 ! A45   A(21,11,23)           108.7322         calculate D2E/DX2 analytically  !
 ! A46   A(22,11,23)           108.9274         calculate D2E/DX2 analytically  !
 ! A47   A(9,12,25)            109.6029         calculate D2E/DX2 analytically  !
 ! A48   A(9,12,26)            109.1823         calculate D2E/DX2 analytically  !
 ! A49   A(9,12,27)            112.6315         calculate D2E/DX2 analytically  !
 ! A50   A(25,12,26)           108.5725         calculate D2E/DX2 analytically  !
 ! A51   A(25,12,27)           108.6883         calculate D2E/DX2 analytically  !
 ! A52   A(26,12,27)           108.0745         calculate D2E/DX2 analytically  !
 ! A53   A(3,13,28)            109.1031         calculate D2E/DX2 analytically  !
 ! A54   A(3,13,29)            110.1253         calculate D2E/DX2 analytically  !
 ! A55   A(3,13,30)            112.4636         calculate D2E/DX2 analytically  !
 ! A56   A(28,13,29)           108.8091         calculate D2E/DX2 analytically  !
 ! A57   A(28,13,30)           107.8286         calculate D2E/DX2 analytically  !
 ! A58   A(29,13,30)           108.4235         calculate D2E/DX2 analytically  !
 ! A59   A(36,31,40)           108.1364         calculate D2E/DX2 analytically  !
 ! A60   A(34,33,38)           107.9298         calculate D2E/DX2 analytically  !
 ! A61   A(34,33,39)           108.6866         calculate D2E/DX2 analytically  !
 ! A62   A(38,33,39)           107.7052         calculate D2E/DX2 analytically  !
 ! A63   A(33,34,35)           114.8258         calculate D2E/DX2 analytically  !
 ! A64   A(33,34,36)           108.7656         calculate D2E/DX2 analytically  !
 ! A65   A(33,34,37)           108.998          calculate D2E/DX2 analytically  !
 ! A66   A(35,34,36)           108.4527         calculate D2E/DX2 analytically  !
 ! A67   A(35,34,37)           108.5266         calculate D2E/DX2 analytically  !
 ! A68   A(36,34,37)           106.994          calculate D2E/DX2 analytically  !
 ! A69   A(34,35,41)           109.9193         calculate D2E/DX2 analytically  !
 ! A70   A(34,35,42)           111.3808         calculate D2E/DX2 analytically  !
 ! A71   A(34,35,43)           108.5572         calculate D2E/DX2 analytically  !
 ! A72   A(41,35,42)           108.9429         calculate D2E/DX2 analytically  !
 ! A73   A(41,35,43)           108.8054         calculate D2E/DX2 analytically  !
 ! A74   A(42,35,43)           109.1933         calculate D2E/DX2 analytically  !
 ! A75   A(31,36,32)           122.9615         calculate D2E/DX2 analytically  !
 ! A76   A(31,36,34)           111.9431         calculate D2E/DX2 analytically  !
 ! A77   A(32,36,34)           125.044          calculate D2E/DX2 analytically  !
 ! A78   L(4,5,41,20,-1)       180.0            calculate D2E/DX2 analytically  !
 ! A79   L(5,41,35,32,-1)      180.0            calculate D2E/DX2 analytically  !
 ! A80   L(4,5,41,20,-2)       180.0            calculate D2E/DX2 analytically  !
 ! A81   L(5,41,35,32,-2)      180.0            calculate D2E/DX2 analytically  !
 ! D1    D(2,1,7,6)             63.1339         calculate D2E/DX2 analytically  !
 ! D2    D(2,1,7,8)           -178.2532         calculate D2E/DX2 analytically  !
 ! D3    D(2,1,7,24)           -59.0597         calculate D2E/DX2 analytically  !
 ! D4    D(6,3,4,5)           -164.7847         calculate D2E/DX2 analytically  !
 ! D5    D(6,3,4,9)             38.62           calculate D2E/DX2 analytically  !
 ! D6    D(11,3,4,5)           -46.1448         calculate D2E/DX2 analytically  !
 ! D7    D(11,3,4,9)           157.2599         calculate D2E/DX2 analytically  !
 ! D8    D(13,3,4,5)            72.5731         calculate D2E/DX2 analytically  !
 ! D9    D(13,3,4,9)           -84.0223         calculate D2E/DX2 analytically  !
 ! D10   D(4,3,6,7)            -47.1623         calculate D2E/DX2 analytically  !
 ! D11   D(4,3,6,14)          -169.9959         calculate D2E/DX2 analytically  !
 ! D12   D(4,3,6,15)            73.0309         calculate D2E/DX2 analytically  !
 ! D13   D(11,3,6,7)          -164.4713         calculate D2E/DX2 analytically  !
 ! D14   D(11,3,6,14)           72.6951         calculate D2E/DX2 analytically  !
 ! D15   D(11,3,6,15)          -44.2782         calculate D2E/DX2 analytically  !
 ! D16   D(13,3,6,7)            74.0624         calculate D2E/DX2 analytically  !
 ! D17   D(13,3,6,14)          -48.7712         calculate D2E/DX2 analytically  !
 ! D18   D(13,3,6,15)         -165.7444         calculate D2E/DX2 analytically  !
 ! D19   D(4,3,11,21)          -54.7575         calculate D2E/DX2 analytically  !
 ! D20   D(4,3,11,22)         -174.1956         calculate D2E/DX2 analytically  !
 ! D21   D(4,3,11,23)           65.9018         calculate D2E/DX2 analytically  !
 ! D22   D(6,3,11,21)           63.9004         calculate D2E/DX2 analytically  !
 ! D23   D(6,3,11,22)          -55.5378         calculate D2E/DX2 analytically  !
 ! D24   D(6,3,11,23)         -175.4404         calculate D2E/DX2 analytically  !
 ! D25   D(13,3,11,21)        -173.3418         calculate D2E/DX2 analytically  !
 ! D26   D(13,3,11,22)          67.22           calculate D2E/DX2 analytically  !
 ! D27   D(13,3,11,23)         -52.6826         calculate D2E/DX2 analytically  !
 ! D28   D(4,3,13,28)         -164.5594         calculate D2E/DX2 analytically  !
 ! D29   D(4,3,13,29)          -45.1983         calculate D2E/DX2 analytically  !
 ! D30   D(4,3,13,30)           75.8487         calculate D2E/DX2 analytically  !
 ! D31   D(6,3,13,28)           74.1487         calculate D2E/DX2 analytically  !
 ! D32   D(6,3,13,29)         -166.4902         calculate D2E/DX2 analytically  !
 ! D33   D(6,3,13,30)          -45.4432         calculate D2E/DX2 analytically  !
 ! D34   D(11,3,13,28)         -47.2489         calculate D2E/DX2 analytically  !
 ! D35   D(11,3,13,29)          72.1121         calculate D2E/DX2 analytically  !
 ! D36   D(11,3,13,30)        -166.8409         calculate D2E/DX2 analytically  !
 ! D37   D(3,4,35,34)         -156.4829         calculate D2E/DX2 analytically  !
 ! D38   D(3,4,35,42)           81.218          calculate D2E/DX2 analytically  !
 ! D39   D(3,4,35,43)          -37.7326         calculate D2E/DX2 analytically  !
 ! D40   D(9,4,35,34)            1.9459         calculate D2E/DX2 analytically  !
 ! D41   D(9,4,35,42)         -120.3532         calculate D2E/DX2 analytically  !
 ! D42   D(9,4,35,43)          120.6962         calculate D2E/DX2 analytically  !
 ! D43   D(3,4,9,8)            -38.4161         calculate D2E/DX2 analytically  !
 ! D44   D(3,4,9,10)          -157.085          calculate D2E/DX2 analytically  !
 ! D45   D(3,4,9,12)            84.4875         calculate D2E/DX2 analytically  !
 ! D46   D(5,4,9,8)            164.9876         calculate D2E/DX2 analytically  !
 ! D47   D(5,4,9,10)            46.3187         calculate D2E/DX2 analytically  !
 ! D48   D(5,4,9,12)           -72.1087         calculate D2E/DX2 analytically  !
 ! D49   D(3,6,7,1)            176.3155         calculate D2E/DX2 analytically  !
 ! D50   D(3,6,7,8)             59.1836         calculate D2E/DX2 analytically  !
 ! D51   D(3,6,7,24)           -62.0984         calculate D2E/DX2 analytically  !
 ! D52   D(14,6,7,1)           -62.1629         calculate D2E/DX2 analytically  !
 ! D53   D(14,6,7,8)          -179.2948         calculate D2E/DX2 analytically  !
 ! D54   D(14,6,7,24)           59.4232         calculate D2E/DX2 analytically  !
 ! D55   D(15,6,7,1)            54.9355         calculate D2E/DX2 analytically  !
 ! D56   D(15,6,7,8)           -62.1964         calculate D2E/DX2 analytically  !
 ! D57   D(15,6,7,24)          176.5216         calculate D2E/DX2 analytically  !
 ! D58   D(1,7,8,9)           -178.8511         calculate D2E/DX2 analytically  !
 ! D59   D(1,7,8,16)            59.2945         calculate D2E/DX2 analytically  !
 ! D60   D(1,7,8,17)           -57.5989         calculate D2E/DX2 analytically  !
 ! D61   D(6,7,8,9)            -58.9353         calculate D2E/DX2 analytically  !
 ! D62   D(6,7,8,16)           179.2102         calculate D2E/DX2 analytically  !
 ! D63   D(6,7,8,17)            62.3168         calculate D2E/DX2 analytically  !
 ! D64   D(24,7,8,9)            62.4858         calculate D2E/DX2 analytically  !
 ! D65   D(24,7,8,16)          -59.3687         calculate D2E/DX2 analytically  !
 ! D66   D(24,7,8,17)         -176.262          calculate D2E/DX2 analytically  !
 ! D67   D(7,8,9,4)             46.8222         calculate D2E/DX2 analytically  !
 ! D68   D(7,8,9,10)           164.3903         calculate D2E/DX2 analytically  !
 ! D69   D(7,8,9,12)           -74.3339         calculate D2E/DX2 analytically  !
 ! D70   D(16,8,9,4)           169.5059         calculate D2E/DX2 analytically  !
 ! D71   D(16,8,9,10)          -72.926          calculate D2E/DX2 analytically  !
 ! D72   D(16,8,9,12)           48.3498         calculate D2E/DX2 analytically  !
 ! D73   D(17,8,9,4)           -73.3598         calculate D2E/DX2 analytically  !
 ! D74   D(17,8,9,10)           44.2083         calculate D2E/DX2 analytically  !
 ! D75   D(17,8,9,12)          165.4841         calculate D2E/DX2 analytically  !
 ! D76   D(4,9,10,18)          174.378          calculate D2E/DX2 analytically  !
 ! D77   D(4,9,10,19)           55.0624         calculate D2E/DX2 analytically  !
 ! D78   D(4,9,10,20)          -65.7386         calculate D2E/DX2 analytically  !
 ! D79   D(8,9,10,18)           55.4533         calculate D2E/DX2 analytically  !
 ! D80   D(8,9,10,19)          -63.8623         calculate D2E/DX2 analytically  !
 ! D81   D(8,9,10,20)          175.3367         calculate D2E/DX2 analytically  !
 ! D82   D(12,9,10,18)         -67.3953         calculate D2E/DX2 analytically  !
 ! D83   D(12,9,10,19)         173.2892         calculate D2E/DX2 analytically  !
 ! D84   D(12,9,10,20)          52.4882         calculate D2E/DX2 analytically  !
 ! D85   D(4,9,12,25)           50.8388         calculate D2E/DX2 analytically  !
 ! D86   D(4,9,12,26)          169.6467         calculate D2E/DX2 analytically  !
 ! D87   D(4,9,12,27)          -70.2915         calculate D2E/DX2 analytically  !
 ! D88   D(8,9,12,25)          172.3546         calculate D2E/DX2 analytically  !
 ! D89   D(8,9,12,26)          -68.8375         calculate D2E/DX2 analytically  !
 ! D90   D(8,9,12,27)           51.2243         calculate D2E/DX2 analytically  !
 ! D91   D(10,9,12,25)         -66.4186         calculate D2E/DX2 analytically  !
 ! D92   D(10,9,12,26)          52.3893         calculate D2E/DX2 analytically  !
 ! D93   D(10,9,12,27)         172.4511         calculate D2E/DX2 analytically  !
 ! D94   D(40,31,36,32)         -1.1618         calculate D2E/DX2 analytically  !
 ! D95   D(40,31,36,34)        176.348          calculate D2E/DX2 analytically  !
 ! D96   D(38,33,34,35)         45.9066         calculate D2E/DX2 analytically  !
 ! D97   D(38,33,34,36)        167.6089         calculate D2E/DX2 analytically  !
 ! D98   D(38,33,34,37)        -76.0677         calculate D2E/DX2 analytically  !
 ! D99   D(39,33,34,35)        -70.6362         calculate D2E/DX2 analytically  !
 ! D100  D(39,33,34,36)         51.0661         calculate D2E/DX2 analytically  !
 ! D101  D(39,33,34,37)        167.3895         calculate D2E/DX2 analytically  !
 ! D102  D(33,34,35,41)         60.5228         calculate D2E/DX2 analytically  !
 ! D103  D(33,34,35,42)       -178.635          calculate D2E/DX2 analytically  !
 ! D104  D(33,34,35,43)        -58.38           calculate D2E/DX2 analytically  !
 ! D105  D(36,34,35,41)        -61.3495         calculate D2E/DX2 analytically  !
 ! D106  D(36,34,35,42)         59.4927         calculate D2E/DX2 analytically  !
 ! D107  D(36,34,35,43)        179.7477         calculate D2E/DX2 analytically  !
 ! D108  D(37,34,35,41)       -177.2477         calculate D2E/DX2 analytically  !
 ! D109  D(37,34,35,42)        -56.4054         calculate D2E/DX2 analytically  !
 ! D110  D(37,34,35,43)         63.8496         calculate D2E/DX2 analytically  !
 ! D111  D(33,34,36,31)        161.5402         calculate D2E/DX2 analytically  !
 ! D112  D(33,34,36,32)        -21.0118         calculate D2E/DX2 analytically  !
 ! D113  D(35,34,36,31)        -72.9504         calculate D2E/DX2 analytically  !
 ! D114  D(35,34,36,32)        104.4976         calculate D2E/DX2 analytically  !
 ! D115  D(37,34,36,31)         43.937          calculate D2E/DX2 analytically  !
 ! D116  D(37,34,36,32)       -138.615          calculate D2E/DX2 analytically  !
 --------------------------------------------------------------------------------
 Trust Radius=3.00D-01 FncErr=1.00D-07 GrdErr=1.00D-06 EigMax=2.50D+02 EigMin=1.00D-04
 Number of steps in this run=    250 maximum allowed number of steps=    258.
 GradGradGradGradGradGradGradGradGradGradGradGradGradGradGradGradGradGrad

                          Input orientation:                          
 ---------------------------------------------------------------------
 Center     Atomic      Atomic             Coordinates (Angstroms)
 Number     Number       Type             X           Y           Z
 ---------------------------------------------------------------------
      1          8           0       -4.784202   -1.352042    0.527749
      2          1           0       -4.770064   -2.228125    0.924600
      3          6           0       -1.075282   -1.073661   -0.251315
      4          7           0       -1.141409    0.385784   -0.561126
      5          8           0       -0.049981    0.932378   -0.917011
      6          6           0       -2.493263   -1.652176   -0.214948
      7          6           0       -3.470356   -0.814960    0.598744
      8          6           0       -3.539927    0.579171    0.005737
      9          6           0       -2.190280    1.301974   -0.023288
     10          6           0       -2.280692    2.501055   -0.967130
     11          6           0       -0.282498   -1.741317   -1.375102
     12          6           0       -1.766751    1.783775    1.372151
     13          6           0       -0.343770   -1.277620    1.085500
     14          1           0       -2.434767   -2.668845    0.186659
     15          1           0       -2.888188   -1.721055   -1.234194
     16          1           0       -4.248682    1.190567    0.570262
     17          1           0       -3.924397    0.484298   -1.015596
     18          1           0       -3.110030    3.137050   -0.651224
     19          1           0       -2.464252    2.167200   -1.990262
     20          1           0       -1.360211    3.082255   -0.945263
     21          1           0       -0.724871   -1.506420   -2.345227
     22          1           0       -0.305856   -2.823091   -1.229960
     23          1           0        0.754529   -1.406743   -1.373142
     24          1           0       -3.152639   -0.765822    1.647043
     25          1           0       -0.745936    2.169738    1.332312
     26          1           0       -2.431220    2.589876    1.690429
     27          1           0       -1.812081    0.992766    2.120624
     28          1           0       -0.053628   -2.326709    1.177834
     29          1           0        0.555770   -0.659149    1.119822
     30          1           0       -0.967199   -1.026933    1.943961
     31          8           0        1.312832    4.225761   -3.484621
     32          8           0       -0.054449    4.503244   -1.738629
     33          7           0        1.947009    3.922681    0.030570
     34          6           0        2.138703    3.566801   -1.368517
     35          6           0        2.193738    2.056046   -1.648627
     36          6           0        1.011594    4.163512   -2.181095
     37          1           0        3.067359    4.021141   -1.727705
     38          1           0        2.580339    3.354102    0.587990
     39          1           0        0.997104    3.682318    0.300507
     40          1           0        0.536981    4.559691   -3.957586
     41          1           0        1.255386    1.586114   -1.342656
     42          1           0        2.362523    1.853611   -2.707858
     43          1           0        3.009402    1.624463   -1.066545
 ---------------------------------------------------------------------
                    Distance matrix (angstroms):
                    1          2          3          4          5
     1  O    0.000000
     2  H    0.961879   0.000000
     3  C    3.800069   4.045612   0.000000
     4  N    4.180386   4.712435   1.493431   0.000000
     5  O    5.451491   5.971557   2.349167   1.271469   0.000000
     6  C    2.426949   2.610385   1.531885   2.469945   3.625250
     7  C    1.421158   1.947424   2.554585   2.865498   4.129124
     8  C    2.355908   3.199759   2.978658   2.472169   3.627112
     9  C    3.751783   4.473855   2.634171   1.492918   2.348664
    10  C    4.832037   5.669282   3.839792   2.436632   2.727514
    11  C    4.902827   5.065951   1.528780   2.434100   2.722601
    12  C    4.432987   5.031454   3.358379   2.466372   2.985371
    13  C    4.475942   4.530058   1.537460   2.472755   2.996740
    14  H    2.714803   2.488454   2.141176   3.400399   4.458038
    15  H    2.614476   2.908431   2.161434   2.818338   3.898298
    16  H    2.598740   3.476327   3.983991   3.403360   4.461808
    17  H    2.548200   3.440458   3.335988   2.821572   3.901486
    18  H    4.934043   5.833013   4.693635   3.384236   3.780889
    19  H    4.909950   5.756047   3.931457   2.639278   2.916395
    20  H    5.792795   6.582068   4.223078   2.732470   2.517831
    21  H    4.975539   5.251306   2.166688   2.633810   2.905686
    22  H    5.030816   4.992521   2.147153   3.382657   3.777162
    23  H    5.856101   6.039488   2.172015   2.732600   2.515309
    24  H    2.063606   2.297024   2.830890   3.201133   4.368609
    25  H    5.418288   5.975034   3.624359   2.631349   2.659862
    26  H    4.735722   5.410159   4.362389   3.404575   3.900813
    27  H    4.107174   4.533682   3.230958   2.830196   3.512246
    28  H    4.873491   4.724258   2.157863   3.400716   3.874279
    29  H    5.417190   5.555565   2.170753   2.607276   2.654916
    30  H    4.084221   4.116278   2.198432   2.881246   3.586830
    31  O    9.186122   9.904318   6.651408   5.414383   4.392750
    32  O    7.860751   8.639511   5.861406   4.418311   3.664173
    33  N    8.566160   9.151545   5.846122   4.732660   3.718574
    34  C    8.701578   9.304333   5.754279   4.640031   3.454617
    35  C    8.064944   8.571473   4.736458   3.885311   2.613841
    36  C    8.446918   9.161110   5.958782   4.640146   3.628371
    37  H    9.777790  10.368860   6.730395   5.682469   4.462678
    38  H    8.740016   9.235961   5.802851   4.897222   3.879221
    39  H    7.669414   8.281489   5.217147   4.022783   3.184479
    40  H    9.131364   9.903278   6.933288   5.636881   4.769384
    41  H    6.971930   7.482975   3.701006   2.792169   1.520700
    42  H    8.474729   8.984938   5.140236   4.363543   3.142607
    43  H    8.493622   8.906581   4.962773   4.361078   3.140249
                    6          7          8          9         10
     6  C    0.000000
     7  C    1.522411   0.000000
     8  C    2.474493   1.516608   0.000000
     9  C    2.975825   2.550868   1.531285   0.000000
    10  C    4.226144   3.855284   2.495152   1.528662   0.000000
    11  C    2.498276   3.862207   4.231102   3.837793   4.707116
    12  C    3.853889   3.202164   2.542108   1.535825   2.500172
    13  C    2.540035   3.197894   3.850842   3.360553   4.716285
    14  H    1.094681   2.163134   3.435654   3.983874   5.299324
    15  H    1.095250   2.125933   2.693183   3.330476   4.273943
    16  H    3.432090   2.151451   1.093082   2.145165   2.820273
    17  H    2.693270   2.121395   1.095417   2.158803   2.602196
    18  H    4.848446   4.160605   2.675660   2.146566   1.091828
    19  H    4.211913   4.075350   2.768199   2.166256   1.091766
    20  H    4.922601   4.693075   3.452679   2.169897   1.088833
    21  H    2.772462   4.084455   4.219154   3.927582   4.514376
    22  H    2.680679   4.170229   4.854024   4.692896   5.684680
    23  H    3.456849   4.699808   4.928236   4.222695   4.964705
    24  H    2.165043   1.096490   2.157054   2.826999   4.273953
    25  H    4.478191   4.107190   3.477943   2.162590   2.784364
    26  H    4.650733   3.723505   2.847868   2.157213   2.663300
    27  H    3.593692   2.886844   2.762111   2.198864   3.468250
    28  H    2.889058   3.780841   4.687455   4.378963   5.733061
    29  H    3.473372   4.062695   4.421465   3.562793   4.731572
    30  H    2.716742   2.849620   3.599335   3.284784   4.758825
    31  O    7.728342   8.059878   7.002106   5.727229   4.714424
    32  O    6.794013   6.739067   5.530797   4.213348   3.091946
    33  N    7.131292   7.219135   6.425430   4.897772   4.570545
    34  C    7.072733   7.384544   6.562115   5.067463   4.563768
    35  C    6.146082   6.736120   6.147600   4.736028   4.547856
    36  C    7.069087   7.252625   6.192421   4.805885   3.882863
    37  H    8.086747   8.458248   7.649066   6.159682   5.611665
    38  H    7.172793   7.347932   6.745140   5.229120   5.174525
    39  H    6.395716   6.346074   5.504640   3.991278   3.707591
    40  H    7.859835   8.105909   6.940724   5.790455   4.595660
    41  H    5.080415   5.645071   5.082040   3.700552   3.671782
    42  H    6.487202   7.216464   6.620174   5.314060   5.000876
    43  H    6.460720   7.121182   6.718343   5.313104   5.363151
                   11         12         13         14         15
    11  C    0.000000
    12  C    4.709212   0.000000
    13  C    2.504662   3.388094   0.000000
    14  H    2.816322   4.655906   2.667525   0.000000
    15  H    2.609576   4.509378   3.471553   1.767122   0.000000
    16  H    5.301981   2.674865   4.648199   4.281647   3.685722
    17  H    4.283227   3.470650   4.509972   3.688730   2.446446
    18  H    5.684840   2.780251   5.491604   5.904782   4.897984
    19  H    4.518294   3.455336   5.081687   5.303507   3.983703
    20  H    4.961156   2.687328   4.915858   5.959116   5.048760
    21  H    1.091793   5.072455   3.459404   3.268857   2.441394
    22  H    1.091717   5.488935   2.784111   2.561809   2.807657
    23  H    1.089664   4.906413   2.695896   3.767956   3.658891
    24  H    4.280498   2.914909   2.909813   2.503909   3.046954
    25  H    4.779249   1.092070   3.479502   5.251339   5.129763
    26  H    5.724834   1.092071   4.436317   5.469505   5.229375
    27  H    4.694138   1.089937   2.895181   4.187524   4.447205
    28  H    2.629172   4.457424   1.092381   2.601789   3.770865
    29  H    2.845773   3.380185   1.092180   3.721960   4.304635
    30  H    3.463429   2.977638   1.090166   2.817400   3.777919
    31  O    6.526957   6.247829   7.342856   8.663625   7.620867
    32  O    6.259290   4.472633   6.440326   7.798174   6.857582
    33  N    6.247199   4.490743   5.779592   7.916599   7.538602
    34  C    5.834242   5.093429   5.971038   7.887869   7.297198
    35  C    4.541644   4.988457   5.002772   6.864104   6.345409
    36  C    6.098468   5.099795   6.489497   8.010291   7.122714
    37  H    6.674713   6.163079   6.901217   8.870969   8.287636
    38  H    6.165457   4.688072   5.500071   7.847818   7.679997
    39  H    5.819009   3.520196   5.197609   7.219970   6.829878
    40  H    6.858824   6.435758   7.764189   8.846343   7.654829
    41  H    3.665780   4.067255   4.080958   5.836156   5.302673
    42  H    4.657884   5.805364   5.614106   7.200335   6.520727
    43  H    4.718081   5.365096   4.929213   7.045707   6.782489
                   16         17         18         19         20
    16  H    0.000000
    17  H    1.766047   0.000000
    18  H    2.564635   2.798759   0.000000
    19  H    3.270212   2.431904   1.775010   0.000000
    20  H    3.770751   3.650942   1.775198   1.774332   0.000000
    21  H    5.309525   3.995978   5.488209   4.080065   4.839369
    22  H    5.907294   4.906996   6.612232   5.489967   6.005483
    23  H    5.962798   5.059271   6.008497   4.849171   4.980593
    24  H    2.487614   3.041062   4.529487   4.722974   4.973987
    25  H    3.716009   4.296044   3.234045   3.740603   2.529302
    26  H    2.552647   3.739734   2.498704   3.705028   2.887277
    27  H    2.894784   3.815271   3.737080   4.324813   3.737621
    28  H    5.508072   5.262675   6.522247   6.003595   5.955803
    29  H    5.177473   5.093072   5.566491   5.175075   4.683339
    30  H    4.191955   4.448350   5.354014   5.284105   5.038601
    31  O    7.522295   6.893708   5.364247   4.553806   3.860195
    32  O    5.822061   5.625940   3.519305   3.365646   2.086541
    33  N    6.792813   6.884065   5.162916   5.159913   3.549123
    34  C    7.085481   6.810841   5.314922   4.851046   3.557573
    35  C    6.868573   6.348440   5.503938   4.671824   3.765418
    36  C    6.639192   6.265701   4.514634   4.012878   2.884763
    37  H    8.174183   7.867720   6.332501   5.839928   4.593158
    38  H    7.163569   7.288268   5.827783   5.788265   4.237062
    39  H    5.813765   6.015034   4.251077   4.418618   2.732938
    40  H    7.399660   6.720716   5.124122   4.312978   3.854380
    41  H    5.840418   5.305763   4.684052   3.820048   3.039360
    42  H    7.409030   6.653129   5.985465   4.889891   4.298261
    43  H    7.452998   7.027100   6.317266   5.577518   4.607969
                   21         22         23         24         25
    21  H    0.000000
    22  H    1.775674   0.000000
    23  H    1.772994   1.775094   0.000000
    24  H    4.730831   4.540229   4.979785   0.000000
    25  H    5.199892   5.629143   4.728857   3.809040   0.000000
    26  H    5.998149   6.507385   5.958811   3.432643   1.773400
    27  H    5.231805   5.296781   4.954950   2.261417   1.772953
    28  H    3.679049   2.471333   2.829653   3.501485   4.552053
    29  H    3.790049   3.308553   2.610224   3.747217   3.121248
    30  H    4.322703   3.706391   3.756564   2.220920   3.262174
    31  O    6.189374   7.575616   6.041121   8.437435   5.627486
    32  O    6.077293   7.348275   5.976285   6.987461   3.918429
    33  N    6.500653   7.222865   5.638721   7.113470   3.466886
    34  C    5.906910   6.842937   5.162567   7.474191   4.191349
    35  C    4.657757   5.498112   3.760070   6.885356   4.188150
    36  C    5.932148   7.173072   5.634413   7.502920   4.405460
    37  H    6.731736   7.646558   5.910738   8.543554   5.228061
    38  H    6.569083   7.056400   5.463082   7.138795   3.608439
    39  H    6.073558   6.808846   5.362694   6.230528   2.527985
    40  H    6.402318   7.915541   6.505767   8.566577   5.944811
    41  H    3.806617   4.678811   3.034630   5.822421   3.391366
    42  H    4.577479   5.583544   3.872598   7.499573   5.107389
    43  H    5.038080   5.549629   3.790338   7.144772   4.489365
                   26         27         28         29         30
    26  H    0.000000
    27  H    1.766115   0.000000
    28  H    5.485299   3.872974   0.000000
    29  H    4.450153   3.055674   1.776369   0.000000
    30  H    3.910108   2.196411   1.763797   1.770284   0.000000
    31  O    6.593572   7.185827   8.157240   6.755471   7.890427
    32  O    4.590039   5.505140   7.426575   5.932404   6.706522
    33  N    4.868305   5.204180   6.661354   4.910721   6.054119
    34  C    5.585314   5.865872   6.784076   5.153267   6.459221
    35  C    5.729267   5.602178   5.678739   4.209458   5.692361
    36  C    5.414610   6.044134   7.385125   5.861902   6.918991
    37  H    6.630727   6.913005   7.647086   6.026741   7.432486
    38  H    5.187980   5.217109   6.289460   4.526357   5.798030
    39  H    3.857294   4.293954   6.162966   4.440089   5.360641
    40  H    6.677609   7.428707   8.610683   7.281258   8.264453
    41  H    4.878341   4.664303   4.834933   3.405065   4.750763
    42  H    6.547288   6.440699   6.197698   4.922342   6.404998
    43  H    6.175216   5.814102   5.480068   4.001924   5.648575
                   31         32         33         34         35
    31  O    0.000000
    32  O    2.234937   0.000000
    33  N    3.584774   2.733671   0.000000
    34  C    2.365203   2.413260   1.456311   0.000000
    35  C    2.975656   3.324338   2.522875   1.537488   0.000000
    36  C    1.339328   1.203180   2.413392   1.512191   2.474348
    37  H    2.491382   3.158834   2.087202   1.094460   2.151991
    38  H    4.353450   3.698080   1.017401   2.016979   2.614740
    39  H    3.836953   2.436752   1.016347   2.025397   2.806388
    40  H    0.968065   2.297117   4.277774   3.202284   3.787396
    41  H    3.399860   3.222129   2.797076   2.168879   1.093141
    42  H    2.707823   3.715066   3.457266   2.186080   1.091530
    43  H    3.936012   4.257495   2.759374   2.149879   1.091051
                   36         37         38         39         40
    36  C    0.000000
    37  H    2.109977   0.000000
    38  H    3.283891   2.458572   0.000000
    39  H    2.527866   2.917945   1.642256   0.000000
    40  H    1.880993   3.415438   5.127477   4.371825   0.000000
    41  H    2.721286   3.059553   2.934054   2.675960   4.024441
    42  H    2.727293   2.481064   3.627883   3.776082   3.495324
    43  H    3.417635   2.486877   2.431714   3.186368   4.804846
                   41         42         43
    41  H    0.000000
    42  H    1.777943   0.000000
    43  H    1.776029   1.779008   0.000000
 Stoichiometry    C12H25N2O4(2)
 Framework group  C1[X(C12H25N2O4)]
 Deg. of freedom   123
 Full point group                 C1      NOp   1
 Largest Abelian subgroup         C1      NOp   1
 Largest concise Abelian subgroup C1      NOp   1
                         Standard orientation:                         
 ---------------------------------------------------------------------
 Center     Atomic      Atomic             Coordinates (Angstroms)
 Number     Number       Type             X           Y           Z
 ---------------------------------------------------------------------
      1          8           0        4.685825   -1.214296   -0.428657
      2          1           0        5.418947   -0.628914   -0.216354
      3          6           0        1.886349    1.342242   -0.168704
      4          7           0        0.802174    0.315642   -0.200235
      5          8           0       -0.388981    0.758058   -0.154941
      6          6           0        3.207644    0.702353   -0.606192
      7          6           0        3.493615   -0.628203    0.076139
      8          6           0        2.368985   -1.596257   -0.237195
      9          6           0        0.991704   -1.105079    0.217420
     10          6           0       -0.092013   -1.934748   -0.471068
     11          6           0        1.500908    2.440817   -1.159531
     12          6           0        0.819636   -1.206671    1.740190
     13          6           0        1.983614    1.936577    1.245894
     14          1           0        4.013181    1.415751   -0.404951
     15          1           0        3.188161    0.520988   -1.686145
     16          1           0        2.565475   -2.562712    0.234168
     17          1           0        2.360529   -1.752139   -1.321431
     18          1           0        0.085955   -2.991371   -0.261398
     19          1           0       -0.060296   -1.781030   -1.551492
     20          1           0       -1.080515   -1.662422   -0.104654
     21          1           0        1.312770    2.014633   -2.146944
     22          1           0        2.324090    3.153956   -1.234699
     23          1           0        0.605959    2.967569   -0.829431
     24          1           0        3.585229   -0.491282    1.160182
     25          1           0       -0.114333   -0.724383    2.036361
     26          1           0        0.773520   -2.259494    2.026643
     27          1           0        1.640728   -0.743125    2.286902
     28          1           0        2.567798    2.858801    1.206813
     29          1           0        0.986050    2.167480    1.625902
     30          1           0        2.472271    1.261459    1.948669
     31          8           0       -4.382556   -0.348698   -1.611891
     32          8           0       -3.161653   -1.635470   -0.252273
     33          7           0       -3.471150    0.115803    1.823831
     34          6           0       -3.780349    0.579720    0.478461
     35          6           0       -2.837715    1.667562   -0.061828
     36          6           0       -3.738748   -0.601365   -0.464951
     37          1           0       -4.803947    0.966763    0.461507
     38          1           0       -3.298433    0.932877    2.404920
     39          1           0       -2.612887   -0.427623    1.791674
     40          1           0       -4.272691   -1.114277   -2.194102
     41          1           0       -1.813624    1.287196   -0.100769
     42          1           0       -3.134099    1.990274   -1.061554
     43          1           0       -2.869861    2.522468    0.615294
 ---------------------------------------------------------------------
 Rotational constants (GHZ):           0.7273548           0.2171540           0.1974052
 Standard basis: 6-311G(d,p) (5D, 7F)
 There are   492 symmetry adapted cartesian basis functions of A   symmetry.
 There are   474 symmetry adapted basis functions of A   symmetry.
   474 basis functions,   776 primitive gaussians,   492 cartesian basis functions
    72 alpha electrons       71 beta electrons
       nuclear repulsion energy      1522.7656823173 Hartrees.
 NAtoms=   43 NActive=   43 NUniq=   43 SFac= 1.00D+00 NAtFMM=   60 NAOKFM=F Big=F
 Integral buffers will be    131072 words long.
 Raffenetti 2 integral format.
 Two-electron integral symmetry is turned on.
 Force inversion solution in PCM.
 ------------------------------------------------------------------------------
 Polarizable Continuum Model (PCM)
 =================================
 Model                : PCM.
 Atomic radii         : UFF (Universal Force Field).
 Polarization charges : Total charges.
 Charge compensation  : None.
 Solution method      : Matrix inversion.
 Cavity type          : Scaled VdW (van der Waals Surface) (Alpha=1.100).
 Cavity algorithm     : GePol (No added spheres)
                        Default sphere list used, NSphG=   43.
                        Lebedev-Laikov grids with approx.  5.0 points / Ang**2.
                        Smoothing algorithm: York/Karplus (Gamma=1.0000).
                        Polarization charges: spherical gaussians, with
                                              point-specific exponents (IZeta= 3).
                        Self-potential: point-specific (ISelfS= 7).
                        Self-field    : sphere-specific E.n sum rule (ISelfD= 2).
 1st derivatives      : Analytical E(r).r(x)/FMM algorithm (CHGder, D1EAlg=3).
                        Cavity 1st derivative terms included.
 2nd derivatives      : Analytical E(r).r(xy)/FMM algorithm (CHGder, D2EAlg=3).
                        Cavity 2nd derivative terms included.
 Solvent              : Water, Eps=  78.355300 Eps(inf)=   1.777849
 ------------------------------------------------------------------------------
 One-electron integrals computed using PRISM.
 NBasis=   474 RedAO= T EigKep=  8.95D-04  NBF=   474
 NBsUse=   474 1.00D-06 EigRej= -1.00D+00 NBFU=   474
 ExpMin= 1.03D-01 ExpMax= 8.59D+03 ExpMxC= 1.30D+03 IAcc=3 IRadAn=         5 AccDes= 0.00D+00
 Harris functional with IExCor= 1009 and IRadAn=       5 diagonalized for initial guess.
 HarFok:  IExCor= 1009 AccDes= 0.00D+00 IRadAn=         5 IDoV= 1 UseB2=F ITyADJ=14
 ICtDFT=  3500011 ScaDFX=  1.000000  1.000000  1.000000  1.000000
 FoFCou: FMM=F IPFlag=           0 FMFlag=      100000 FMFlg1=           0
         NFxFlg=           0 DoJE=T BraDBF=F KetDBF=T FulRan=T
         wScrn=  0.000000 ICntrl=       500 IOpCl=  0 I1Cent=   200000004 NGrid=           0
         NMat0=    1 NMatS0=      1 NMatT0=    0 NMatD0=    1 NMtDS0=    0 NMtDT0=    0
 Petite list used in FoFCou.
 Initial guess <Sx>= 0.0000 <Sy>= 0.0000 <Sz>= 0.5000 <S**2>= 0.7500 S= 0.5000
 Requested convergence on RMS density matrix=1.00D-08 within 128 cycles.
 Requested convergence on MAX density matrix=1.00D-06.
 Requested convergence on             energy=1.00D-06.
 No special actions if energy rises.
 Inv3:  Mode=1 IEnd=    21547200.
 Iteration    1 A*A^-1 deviation from unit magnitude is 7.11D-15 for   1280.
 Iteration    1 A*A^-1 deviation from orthogonality  is 2.68D-15 for   1309   1280.
 Iteration    1 A^-1*A deviation from unit magnitude is 6.44D-15 for   2665.
 Iteration    1 A^-1*A deviation from orthogonality  is 1.43D-15 for   1286   1255.
 Error on total polarization charges =  0.01201
 SCF Done:  E(UM062X) =  -882.548715280     A.U. after   15 cycles
            NFock= 15  Conv=0.35D-08     -V/T= 2.0034
 <Sx>= 0.0000 <Sy>= 0.0000 <Sz>= 0.5000 <S**2>= 0.7546 S= 0.5023
 <L.S>= 0.000000000000E+00
 Annihilation of the first spin contaminant:
 S**2 before annihilation     0.7546,   after     0.7500
 DoSCS=F DFT=T ScalE2(SS,OS)=  1.000000  1.000000
 Range of M.O.s used for correlation:     1   474
 NBasis=   474 NAE=    72 NBE=    71 NFC=     0 NFV=     0
 NROrb=    474 NOA=    72 NOB=    71 NVA=   402 NVB=   403
 PrsmSu:  requested number of processors reduced to:  14 ShMem   1 Linda.
 Symmetrizing basis deriv contribution to polar:
 IMax=3 JMax=2 DiffMx= 0.00D+00
 G2DrvN: will do    15 centers at a time, making    3 passes.
 Calling FoFCou, ICntrl=  3107 FMM=F I1Cent=   0 AccDes= 0.00D+00.
 Calling FoFCou, ICntrl=  3107 FMM=F I1Cent=   0 AccDes= 0.00D+00.
 Calling FoFCou, ICntrl=  3107 FMM=F I1Cent=   0 AccDes= 0.00D+00.
 NEqPCM:  Using equilibrium solvation (IEInf=0, Eps=  78.3553, EpsInf=   1.7778)
 G2PCM: DoFxE=T DoFxN=T DoGrad=T DoDP/DQ/DG/TGxP=FFFF NFrqRd=   0 IEInf=0 SqF1=F DoCFld=F IF1Alg=4.
 End of G2Drv F.D. properties file   721 does not exist.
 End of G2Drv F.D. properties file   722 does not exist.
 End of G2Drv F.D. properties file   788 does not exist.
          IDoAtm=1111111111111111111111111111111111111111111
 NEqPCM:  Using equilibrium solvation (IEInf=0, Eps=  78.3553, EpsInf=   1.7778)
          Differentiating once with respect to electric field.
                with respect to dipole field.
          Differentiating once with respect to nuclear coordinates.
 CalDSu exits because no D1Ps are significant.
          There are   132 degrees of freedom in the 1st order CPHF.  IDoFFX=6 NUNeed=     3.
    132 vectors produced by pass  0 Test12= 5.76D-14 1.00D-09 XBig12= 1.46D+02 2.18D+00.
 AX will form    16 AO Fock derivatives at one time.
    131 vectors produced by pass  1 Test12= 5.76D-14 1.00D-09 XBig12= 1.02D+01 3.94D-01.
    129 vectors produced by pass  2 Test12= 5.76D-14 1.00D-09 XBig12= 4.31D-01 1.32D-01.
    129 vectors produced by pass  3 Test12= 5.76D-14 1.00D-09 XBig12= 4.22D-03 6.25D-03.
    129 vectors produced by pass  4 Test12= 5.76D-14 1.00D-09 XBig12= 2.98D-05 4.38D-04.
    129 vectors produced by pass  5 Test12= 5.76D-14 1.00D-09 XBig12= 2.30D-07 3.05D-05.
    118 vectors produced by pass  6 Test12= 5.76D-14 1.00D-09 XBig12= 1.50D-09 2.51D-06.
     30 vectors produced by pass  7 Test12= 5.76D-14 1.00D-09 XBig12= 8.14D-12 1.70D-07.
      4 vectors produced by pass  8 Test12= 5.76D-14 1.00D-09 XBig12= 5.25D-14 1.53D-08.
      1 vectors produced by pass  9 Test12= 5.76D-14 1.00D-09 XBig12= 8.08D-16 2.41D-09.
 InvSVY:  IOpt=1 It=  1 EMax= 5.33D-14
 Solved reduced A of dimension   932 with   132 vectors.
 Isotropic polarizability for W=    0.000000      207.90 Bohr**3.
 End of Minotr F.D. properties file   721 does not exist.
 End of Minotr F.D. properties file   722 does not exist.
 End of Minotr F.D. properties file   788 does not exist.

 **********************************************************************

            Population analysis using the SCF density.

 **********************************************************************

 Orbital symmetries:
 Alpha Orbitals:
       Occupied  (A) (A) (A) (A) (A) (A) (A) (A) (A) (A) (A) (A)
                 (A) (A) (A) (A) (A) (A) (A) (A) (A) (A) (A) (A)
                 (A) (A) (A) (A) (A) (A) (A) (A) (A) (A) (A) (A)
                 (A) (A) (A) (A) (A) (A) (A) (A) (A) (A) (A) (A)
                 (A) (A) (A) (A) (A) (A) (A) (A) (A) (A) (A) (A)
                 (A) (A) (A) (A) (A) (A) (A) (A) (A) (A) (A) (A)
       Virtual   (A) (A) (A) (A) (A) (A) (A) (A) (A) (A) (A) (A)
                 (A) (A) (A) (A) (A) (A) (A) (A) (A) (A) (A) (A)
                 (A) (A) (A) (A) (A) (A) (A) (A) (A) (A) (A) (A)
                 (A) (A) (A) (A) (A) (A) (A) (A) (A) (A) (A) (A)
                 (A) (A) (A) (A) (A) (A) (A) (A) (A) (A) (A) (A)
                 (A) (A) (A) (A) (A) (A) (A) (A) (A) (A) (A) (A)
                 (A) (A) (A) (A) (A) (A) (A) (A) (A) (A) (A) (A)
                 (A) (A) (A) (A) (A) (A) (A) (A) (A) (A) (A) (A)
                 (A) (A) (A) (A) (A) (A) (A) (A) (A) (A) (A) (A)
                 (A) (A) (A) (A) (A) (A) (A) (A) (A) (A) (A) (A)
                 (A) (A) (A) (A) (A) (A) (A) (A) (A) (A) (A) (A)
                 (A) (A) (A) (A) (A) (A) (A) (A) (A) (A) (A) (A)
                 (A) (A) (A) (A) (A) (A) (A) (A) (A) (A) (A) (A)
                 (A) (A) (A) (A) (A) (A) (A) (A) (A) (A) (A) (A)
                 (A) (A) (A) (A) (A) (A) (A) (A) (A) (A) (A) (A)
                 (A) (A) (A) (A) (A) (A) (A) (A) (A) (A) (A) (A)
                 (A) (A) (A) (A) (A) (A) (A) (A) (A) (A) (A) (A)
                 (A) (A) (A) (A) (A) (A) (A) (A) (A) (A) (A) (A)
                 (A) (A) (A) (A) (A) (A) (A) (A) (A) (A) (A) (A)
                 (A) (A) (A) (A) (A) (A) (A) (A) (A) (A) (A) (A)
                 (A) (A) (A) (A) (A) (A) (A) (A) (A) (A) (A) (A)
                 (A) (A) (A) (A) (A) (A) (A) (A) (A) (A) (A) (A)
                 (A) (A) (A) (A) (A) (A) (A) (A) (A) (A) (A) (A)
                 (A) (A) (A) (A) (A) (A) (A) (A) (A) (A) (A) (A)
                 (A) (A) (A) (A) (A) (A) (A) (A) (A) (A) (A) (A)
                 (A) (A) (A) (A) (A) (A) (A) (A) (A) (A) (A) (A)
                 (A) (A) (A) (A) (A) (A) (A) (A) (A) (A) (A) (A)
                 (A) (A) (A) (A) (A) (A) (A) (A) (A) (A) (A) (A)
                 (A) (A) (A) (A) (A) (A) (A) (A) (A) (A) (A) (A)
                 (A) (A) (A) (A) (A) (A) (A) (A) (A) (A) (A) (A)
                 (A) (A) (A) (A) (A) (A) (A) (A) (A) (A) (A) (A)
                 (A) (A) (A) (A) (A) (A) (A) (A) (A) (A) (A) (A)
                 (A) (A) (A) (A) (A) (A) (A) (A) (A) (A) (A) (A)
                 (A) (A) (A) (A) (A) (A)
 Beta  Orbitals:
       Occupied  (A) (A) (A) (A) (A) (A) (A) (A) (A) (A) (A) (A)
                 (A) (A) (A) (A) (A) (A) (A) (A) (A) (A) (A) (A)
                 (A) (A) (A) (A) (A) (A) (A) (A) (A) (A) (A) (A)
                 (A) (A) (A) (A) (A) (A) (A) (A) (A) (A) (A) (A)
                 (A) (A) (A) (A) (A) (A) (A) (A) (A) (A) (A) (A)
                 (A) (A) (A) (A) (A) (A) (A) (A) (A) (A) (A)
       Virtual   (A) (A) (A) (A) (A) (A) (A) (A) (A) (A) (A) (A)
                 (A) (A) (A) (A) (A) (A) (A) (A) (A) (A) (A) (A)
                 (A) (A) (A) (A) (A) (A) (A) (A) (A) (A) (A) (A)
                 (A) (A) (A) (A) (A) (A) (A) (A) (A) (A) (A) (A)
                 (A) (A) (A) (A) (A) (A) (A) (A) (A) (A) (A) (A)
                 (A) (A) (A) (A) (A) (A) (A) (A) (A) (A) (A) (A)
                 (A) (A) (A) (A) (A) (A) (A) (A) (A) (A) (A) (A)
                 (A) (A) (A) (A) (A) (A) (A) (A) (A) (A) (A) (A)
                 (A) (A) (A) (A) (A) (A) (A) (A) (A) (A) (A) (A)
                 (A) (A) (A) (A) (A) (A) (A) (A) (A) (A) (A) (A)
                 (A) (A) (A) (A) (A) (A) (A) (A) (A) (A) (A) (A)
                 (A) (A) (A) (A) (A) (A) (A) (A) (A) (A) (A) (A)
                 (A) (A) (A) (A) (A) (A) (A) (A) (A) (A) (A) (A)
                 (A) (A) (A) (A) (A) (A) (A) (A) (A) (A) (A) (A)
                 (A) (A) (A) (A) (A) (A) (A) (A) (A) (A) (A) (A)
                 (A) (A) (A) (A) (A) (A) (A) (A) (A) (A) (A) (A)
                 (A) (A) (A) (A) (A) (A) (A) (A) (A) (A) (A) (A)
                 (A) (A) (A) (A) (A) (A) (A) (A) (A) (A) (A) (A)
                 (A) (A) (A) (A) (A) (A) (A) (A) (A) (A) (A) (A)
                 (A) (A) (A) (A) (A) (A) (A) (A) (A) (A) (A) (A)
                 (A) (A) (A) (A) (A) (A) (A) (A) (A) (A) (A) (A)
                 (A) (A) (A) (A) (A) (A) (A) (A) (A) (A) (A) (A)
                 (A) (A) (A) (A) (A) (A) (A) (A) (A) (A) (A) (A)
                 (A) (A) (A) (A) (A) (A) (A) (A) (A) (A) (A) (A)
                 (A) (A) (A) (A) (A) (A) (A) (A) (A) (A) (A) (A)
                 (A) (A) (A) (A) (A) (A) (A) (A) (A) (A) (A) (A)
                 (A) (A) (A) (A) (A) (A) (A) (A) (A) (A) (A) (A)
                 (A) (A) (A) (A) (A) (A) (A) (A) (A) (A) (A) (A)
                 (A) (A) (A) (A) (A) (A) (A) (A) (A) (A) (A) (A)
                 (A) (A) (A) (A) (A) (A) (A) (A) (A) (A) (A) (A)
                 (A) (A) (A) (A) (A) (A) (A) (A) (A) (A) (A) (A)
                 (A) (A) (A) (A) (A) (A) (A) (A) (A) (A) (A) (A)
                 (A) (A) (A) (A) (A) (A) (A) (A) (A) (A) (A) (A)
                 (A) (A) (A) (A) (A) (A) (A)
 The electronic state is 2-A.
 Alpha  occ. eigenvalues --  -19.66862 -19.62762 -19.61919 -19.61818 -14.84372
 Alpha  occ. eigenvalues --  -14.72225 -10.67801 -10.59442 -10.59205 -10.59165
 Alpha  occ. eigenvalues --  -10.57492 -10.53909 -10.53774 -10.53163 -10.53086
 Alpha  occ. eigenvalues --  -10.52769 -10.51850 -10.50318  -1.24423  -1.23949
 Alpha  occ. eigenvalues --   -1.14946  -1.14927  -0.99780  -0.98621  -0.92913
 Alpha  occ. eigenvalues --   -0.86507  -0.84109  -0.82477  -0.79322  -0.78359
 Alpha  occ. eigenvalues --   -0.78065  -0.75351  -0.69312  -0.68894  -0.67032
 Alpha  occ. eigenvalues --   -0.62790  -0.60854  -0.59516  -0.58969  -0.58416
 Alpha  occ. eigenvalues --   -0.57101  -0.55985  -0.54579  -0.52861  -0.52205
 Alpha  occ. eigenvalues --   -0.51635  -0.50313  -0.49937  -0.49438  -0.48480
 Alpha  occ. eigenvalues --   -0.47657  -0.47264  -0.46378  -0.46004  -0.45721
 Alpha  occ. eigenvalues --   -0.44604  -0.44141  -0.43685  -0.43595  -0.42921
 Alpha  occ. eigenvalues --   -0.41535  -0.41218  -0.40627  -0.39984  -0.39628
 Alpha  occ. eigenvalues --   -0.38420  -0.37439  -0.35635  -0.34822  -0.34235
 Alpha  occ. eigenvalues --   -0.31146  -0.27288
 Alpha virt. eigenvalues --    0.04962   0.06165   0.07650   0.08366   0.08554
 Alpha virt. eigenvalues --    0.09215   0.09847   0.10840   0.11659   0.11911
 Alpha virt. eigenvalues --    0.13242   0.14220   0.14765   0.15016   0.16126
 Alpha virt. eigenvalues --    0.16377   0.16574   0.16934   0.17527   0.18255
 Alpha virt. eigenvalues --    0.18694   0.19484   0.20099   0.20381   0.20844
 Alpha virt. eigenvalues --    0.22165   0.22508   0.23105   0.24347   0.24691
 Alpha virt. eigenvalues --    0.25378   0.25919   0.26671   0.28377   0.28627
 Alpha virt. eigenvalues --    0.29294   0.30020   0.30378   0.30733   0.31498
 Alpha virt. eigenvalues --    0.31884   0.33367   0.34236   0.35132   0.36123
 Alpha virt. eigenvalues --    0.36485   0.37253   0.37541   0.40218   0.40591
 Alpha virt. eigenvalues --    0.41223   0.41855   0.42702   0.44276   0.44450
 Alpha virt. eigenvalues --    0.45239   0.45790   0.47435   0.48757   0.49275
 Alpha virt. eigenvalues --    0.49538   0.50088   0.51180   0.52135   0.52740
 Alpha virt. eigenvalues --    0.53044   0.53845   0.53978   0.55421   0.57736
 Alpha virt. eigenvalues --    0.58125   0.58828   0.59204   0.59999   0.60570
 Alpha virt. eigenvalues --    0.61366   0.62245   0.62718   0.62866   0.63639
 Alpha virt. eigenvalues --    0.64078   0.64253   0.65003   0.65289   0.65400
 Alpha virt. eigenvalues --    0.65732   0.66246   0.66887   0.67026   0.67747
 Alpha virt. eigenvalues --    0.67951   0.68138   0.68867   0.69340   0.69398
 Alpha virt. eigenvalues --    0.69992   0.70486   0.71812   0.72485   0.73455
 Alpha virt. eigenvalues --    0.74302   0.74566   0.75435   0.77241   0.77786
 Alpha virt. eigenvalues --    0.79843   0.81051   0.82710   0.84854   0.86179
 Alpha virt. eigenvalues --    0.87349   0.88347   0.89092   0.92789   0.93229
 Alpha virt. eigenvalues --    0.93830   0.95206   0.95423   0.96937   0.97730
 Alpha virt. eigenvalues --    0.99956   1.01120   1.02069   1.03000   1.03568
 Alpha virt. eigenvalues --    1.05699   1.07181   1.09443   1.10569   1.11508
 Alpha virt. eigenvalues --    1.11889   1.12662   1.15098   1.17234   1.17865
 Alpha virt. eigenvalues --    1.20410   1.21015   1.23532   1.25066   1.26242
 Alpha virt. eigenvalues --    1.27519   1.29881   1.31624   1.33532   1.34492
 Alpha virt. eigenvalues --    1.34913   1.36301   1.37034   1.39107   1.39834
 Alpha virt. eigenvalues --    1.41005   1.42653   1.44743   1.46023   1.47110
 Alpha virt. eigenvalues --    1.47606   1.47936   1.48338   1.48519   1.49430
 Alpha virt. eigenvalues --    1.50597   1.50745   1.51202   1.51741   1.52579
 Alpha virt. eigenvalues --    1.52961   1.53837   1.55240   1.55303   1.56119
 Alpha virt. eigenvalues --    1.56855   1.57267   1.58351   1.58512   1.59036
 Alpha virt. eigenvalues --    1.59591   1.60431   1.60725   1.61541   1.63474
 Alpha virt. eigenvalues --    1.63559   1.65274   1.65630   1.66165   1.67132
 Alpha virt. eigenvalues --    1.67673   1.68572   1.69093   1.69659   1.69863
 Alpha virt. eigenvalues --    1.70793   1.71601   1.72439   1.73041   1.74568
 Alpha virt. eigenvalues --    1.74895   1.75607   1.76540   1.76955   1.77837
 Alpha virt. eigenvalues --    1.78227   1.79177   1.79916   1.80936   1.81662
 Alpha virt. eigenvalues --    1.83076   1.83916   1.85047   1.85678   1.85843
 Alpha virt. eigenvalues --    1.86827   1.88447   1.89435   1.90137   1.91016
 Alpha virt. eigenvalues --    1.91324   1.93094   1.93653   1.95985   1.96340
 Alpha virt. eigenvalues --    1.97397   1.98550   1.99860   2.01307   2.02989
 Alpha virt. eigenvalues --    2.04071   2.05359   2.07291   2.07810   2.09376
 Alpha virt. eigenvalues --    2.10048   2.11331   2.11424   2.13690   2.13723
 Alpha virt. eigenvalues --    2.15584   2.17068   2.18714   2.19605   2.21928
 Alpha virt. eigenvalues --    2.22487   2.23424   2.24872   2.25238   2.26695
 Alpha virt. eigenvalues --    2.27730   2.30033   2.31803   2.33344   2.35053
 Alpha virt. eigenvalues --    2.36479   2.38338   2.40650   2.42110   2.43020
 Alpha virt. eigenvalues --    2.45695   2.46532   2.46952   2.48006   2.48259
 Alpha virt. eigenvalues --    2.49334   2.50415   2.50698   2.52263   2.52740
 Alpha virt. eigenvalues --    2.53410   2.53703   2.54342   2.55316   2.56659
 Alpha virt. eigenvalues --    2.56758   2.57563   2.58143   2.58522   2.59265
 Alpha virt. eigenvalues --    2.59851   2.60555   2.60685   2.61472   2.61986
 Alpha virt. eigenvalues --    2.63524   2.65649   2.65981   2.66590   2.67776
 Alpha virt. eigenvalues --    2.68596   2.69471   2.69873   2.71306   2.71887
 Alpha virt. eigenvalues --    2.74043   2.75473   2.78186   2.78992   2.79873
 Alpha virt. eigenvalues --    2.81392   2.83071   2.83827   2.86782   2.87751
 Alpha virt. eigenvalues --    2.88575   2.89730   2.90679   2.91160   2.93121
 Alpha virt. eigenvalues --    2.93771   2.94357   2.95168   2.96818   2.97859
 Alpha virt. eigenvalues --    2.99487   3.02546   3.03213   3.04693   3.06952
 Alpha virt. eigenvalues --    3.07423   3.11371   3.12494   3.12837   3.16882
 Alpha virt. eigenvalues --    3.19291   3.21001   3.23572   3.24342   3.26098
 Alpha virt. eigenvalues --    3.27154   3.29344   3.30612   3.32603   3.33945
 Alpha virt. eigenvalues --    3.39251   3.39779   3.41957   3.42902   3.50702
 Alpha virt. eigenvalues --    3.55339   3.58023   3.62004   3.62492   3.69718
 Alpha virt. eigenvalues --    3.77997   3.80066   3.81028   3.81225   3.81541
 Alpha virt. eigenvalues --    3.83203   3.83972   3.85268   3.86063   3.86253
 Alpha virt. eigenvalues --    3.87027   3.88214   3.89103   3.90836   3.92591
 Alpha virt. eigenvalues --    3.96445   3.98768   4.00542   4.05193   4.11364
 Alpha virt. eigenvalues --    4.13773   4.20346   4.23951   4.26247   4.33423
 Alpha virt. eigenvalues --    4.37059   4.38619   4.39944   4.82675   4.87497
 Alpha virt. eigenvalues --    4.91218   4.91961   4.94567   5.02972   5.06429
 Alpha virt. eigenvalues --    5.10857   5.19105   5.23235   5.38832   5.39856
 Alpha virt. eigenvalues --    5.68052   5.74755   5.86077   6.04088  23.78344
 Alpha virt. eigenvalues --   23.83730  23.88405  23.88652  23.88966  23.95147
 Alpha virt. eigenvalues --   23.97918  24.01196  24.03045  24.04539  24.06011
 Alpha virt. eigenvalues --   24.08144  35.54640  35.68124  49.96725  50.02427
 Alpha virt. eigenvalues --   50.04885  50.11057
  Beta  occ. eigenvalues --  -19.66862 -19.61919 -19.61818 -19.61777 -14.83521
  Beta  occ. eigenvalues --  -14.72224 -10.67801 -10.59472 -10.59206 -10.59195
  Beta  occ. eigenvalues --  -10.57492 -10.53905 -10.53770 -10.53125 -10.53048
  Beta  occ. eigenvalues --  -10.52757 -10.51838 -10.50323  -1.24422  -1.21030
  Beta  occ. eigenvalues --   -1.14942  -1.14927  -0.99767  -0.97323  -0.92713
  Beta  occ. eigenvalues --   -0.85789  -0.84096  -0.81056  -0.79105  -0.78287
  Beta  occ. eigenvalues --   -0.77971  -0.75305  -0.69062  -0.68302  -0.67000
  Beta  occ. eigenvalues --   -0.62051  -0.60779  -0.59009  -0.58906  -0.57893
  Beta  occ. eigenvalues --   -0.56183  -0.54613  -0.53198  -0.52397  -0.51930
  Beta  occ. eigenvalues --   -0.51428  -0.50187  -0.49884  -0.49364  -0.47834
  Beta  occ. eigenvalues --   -0.47360  -0.46882  -0.46186  -0.45843  -0.45486
  Beta  occ. eigenvalues --   -0.43965  -0.43732  -0.43405  -0.43066  -0.42354
  Beta  occ. eigenvalues --   -0.41288  -0.41060  -0.40043  -0.39564  -0.38518
  Beta  occ. eigenvalues --   -0.37457  -0.37180  -0.35582  -0.34630  -0.32985
  Beta  occ. eigenvalues --   -0.31132
  Beta virt. eigenvalues --   -0.02364   0.04962   0.06260   0.07689   0.08374
  Beta virt. eigenvalues --    0.08553   0.09235   0.09859   0.10932   0.11689
  Beta virt. eigenvalues --    0.11937   0.13233   0.14234   0.14810   0.15045
  Beta virt. eigenvalues --    0.16138   0.16405   0.16597   0.17092   0.17612
  Beta virt. eigenvalues --    0.18285   0.18835   0.19523   0.20332   0.20533
  Beta virt. eigenvalues --    0.20888   0.22193   0.22607   0.23379   0.24711
  Beta virt. eigenvalues --    0.25021   0.25479   0.26013   0.26900   0.28451
  Beta virt. eigenvalues --    0.28727   0.29416   0.30166   0.30502   0.31023
  Beta virt. eigenvalues --    0.31551   0.31959   0.33405   0.34379   0.35158
  Beta virt. eigenvalues --    0.36431   0.36673   0.37482   0.37741   0.40324
  Beta virt. eigenvalues --    0.40680   0.41323   0.42006   0.43119   0.44344
  Beta virt. eigenvalues --    0.44648   0.45447   0.45966   0.47475   0.48818
  Beta virt. eigenvalues --    0.49347   0.49746   0.50126   0.51232   0.52221
  Beta virt. eigenvalues --    0.52847   0.53111   0.54031   0.54210   0.55564
  Beta virt. eigenvalues --    0.57997   0.58176   0.58876   0.59261   0.60079
  Beta virt. eigenvalues --    0.60680   0.61430   0.62291   0.62762   0.62950
  Beta virt. eigenvalues --    0.63664   0.64207   0.64356   0.65118   0.65371
  Beta virt. eigenvalues --    0.65425   0.65792   0.66330   0.66980   0.67071
  Beta virt. eigenvalues --    0.67828   0.67961   0.68223   0.69013   0.69417
  Beta virt. eigenvalues --    0.69428   0.70023   0.70535   0.71937   0.72549
  Beta virt. eigenvalues --    0.73541   0.74449   0.74770   0.75582   0.77303
  Beta virt. eigenvalues --    0.77885   0.79912   0.81189   0.83148   0.85435
  Beta virt. eigenvalues --    0.86410   0.87535   0.88549   0.89202   0.92946
  Beta virt. eigenvalues --    0.93671   0.94426   0.95323   0.95818   0.97080
  Beta virt. eigenvalues --    0.98003   1.00113   1.01251   1.02225   1.03401
  Beta virt. eigenvalues --    1.03719   1.05768   1.07383   1.09930   1.10797
  Beta virt. eigenvalues --    1.11600   1.12548   1.12808   1.15297   1.17440
  Beta virt. eigenvalues --    1.17945   1.20517   1.21035   1.23633   1.25099
  Beta virt. eigenvalues --    1.26384   1.27631   1.29949   1.31703   1.33616
  Beta virt. eigenvalues --    1.34685   1.35090   1.36496   1.37472   1.39170
  Beta virt. eigenvalues --    1.40024   1.41071   1.42778   1.44851   1.46131
  Beta virt. eigenvalues --    1.47264   1.47624   1.47968   1.48363   1.48562
  Beta virt. eigenvalues --    1.49498   1.50640   1.50777   1.51234   1.51795
  Beta virt. eigenvalues --    1.52595   1.52997   1.53921   1.55300   1.55353
  Beta virt. eigenvalues --    1.56219   1.56924   1.57352   1.58405   1.58589
  Beta virt. eigenvalues --    1.59090   1.59649   1.60499   1.60753   1.61603
  Beta virt. eigenvalues --    1.63538   1.63630   1.65298   1.65740   1.66223
  Beta virt. eigenvalues --    1.67193   1.67680   1.68650   1.69242   1.69775
  Beta virt. eigenvalues --    1.69914   1.70905   1.71669   1.72557   1.73087
  Beta virt. eigenvalues --    1.74580   1.74945   1.75703   1.76576   1.77045
  Beta virt. eigenvalues --    1.77901   1.78412   1.79264   1.80015   1.81036
  Beta virt. eigenvalues --    1.81813   1.83104   1.84007   1.85110   1.85774
  Beta virt. eigenvalues --    1.86002   1.87458   1.88565   1.89614   1.90227
  Beta virt. eigenvalues --    1.91063   1.91509   1.93149   1.93741   1.95991
  Beta virt. eigenvalues --    1.96363   1.97494   1.98602   1.99900   2.01342
  Beta virt. eigenvalues --    2.03175   2.04164   2.05380   2.07450   2.07940
  Beta virt. eigenvalues --    2.10011   2.10177   2.11448   2.11692   2.13720
  Beta virt. eigenvalues --    2.13765   2.15633   2.17167   2.18786   2.19703
  Beta virt. eigenvalues --    2.22028   2.22807   2.23598   2.25028   2.25252
  Beta virt. eigenvalues --    2.26798   2.27872   2.30407   2.32094   2.33528
  Beta virt. eigenvalues --    2.35156   2.36747   2.38380   2.40744   2.42200
  Beta virt. eigenvalues --    2.43199   2.45845   2.46574   2.47131   2.48047
  Beta virt. eigenvalues --    2.48318   2.49403   2.50467   2.50759   2.52291
  Beta virt. eigenvalues --    2.52767   2.53541   2.53762   2.54365   2.55422
  Beta virt. eigenvalues --    2.56720   2.56796   2.57637   2.58299   2.58577
  Beta virt. eigenvalues --    2.59366   2.59963   2.60626   2.60770   2.61515
  Beta virt. eigenvalues --    2.62225   2.63621   2.65726   2.66006   2.66646
  Beta virt. eigenvalues --    2.67828   2.68697   2.69593   2.69957   2.71416
  Beta virt. eigenvalues --    2.71930   2.74072   2.75700   2.78230   2.79139
  Beta virt. eigenvalues --    2.80059   2.81473   2.83127   2.83839   2.86988
  Beta virt. eigenvalues --    2.87813   2.88692   2.90256   2.90871   2.91818
  Beta virt. eigenvalues --    2.93400   2.93902   2.94834   2.96146   2.97112
  Beta virt. eigenvalues --    2.98051   2.99611   3.02611   3.03736   3.05029
  Beta virt. eigenvalues --    3.07511   3.08029   3.11559   3.12517   3.12849
  Beta virt. eigenvalues --    3.16986   3.19298   3.21030   3.23702   3.24941
  Beta virt. eigenvalues --    3.26187   3.27289   3.29355   3.30654   3.32652
  Beta virt. eigenvalues --    3.35797   3.39309   3.39961   3.41968   3.42982
  Beta virt. eigenvalues --    3.51302   3.55525   3.58026   3.62390   3.62663
  Beta virt. eigenvalues --    3.69771   3.78048   3.80112   3.81136   3.81299
  Beta virt. eigenvalues --    3.81609   3.83258   3.84058   3.85311   3.86092
  Beta virt. eigenvalues --    3.86274   3.87073   3.88253   3.89139   3.90867
  Beta virt. eigenvalues --    3.92925   3.96519   3.98886   4.02381   4.06352
  Beta virt. eigenvalues --    4.11373   4.13827   4.20444   4.23956   4.26279
  Beta virt. eigenvalues --    4.33422   4.37367   4.39034   4.39947   4.82685
  Beta virt. eigenvalues --    4.88275   4.91471   4.92389   4.94585   5.02979
  Beta virt. eigenvalues --    5.10602   5.11094   5.19313   5.24102   5.38843
  Beta virt. eigenvalues --    5.39860   5.68053   5.74757   5.86077   6.04318
  Beta virt. eigenvalues --   23.78314  23.83730  23.88380  23.88650  23.88945
  Beta virt. eigenvalues --   23.95150  23.97931  24.01209  24.03056  24.04549
  Beta virt. eigenvalues --   24.06008  24.08147  35.54048  35.68123  49.96723
  Beta virt. eigenvalues --   50.01694  50.04816  50.11055
          Condensed to atoms (all electrons):
               1          2          3          4          5          6
     1  O    7.995175   0.320022   0.005868   0.000009   0.000000  -0.049905
     2  H    0.320022   0.435853  -0.000258   0.000019  -0.000001  -0.001630
     3  C    0.005868  -0.000258   5.582727   0.197101  -0.082216   0.190755
     4  N    0.000009   0.000019   0.197101   6.891036   0.163841  -0.042612
     5  O    0.000000  -0.000001  -0.082216   0.163841   8.380919   0.006340
     6  C   -0.049905  -0.001630   0.190755  -0.042612   0.006340   5.340863
     7  C    0.252732  -0.040087  -0.045514  -0.009674   0.000174   0.310451
     8  C   -0.056574   0.010137   0.005167  -0.035268   0.006120  -0.100770
     9  C    0.003725  -0.000728  -0.100539   0.185529  -0.080601   0.012489
    10  C   -0.000101   0.000028   0.007584  -0.070045   0.000753  -0.002843
    11  C   -0.000143  -0.000001   0.324199  -0.071986   0.004194  -0.066236
    12  C   -0.000085   0.000008  -0.002731  -0.073806  -0.005317   0.001792
    13  C   -0.000011   0.000014   0.305138  -0.072204  -0.006988  -0.086802
    14  H   -0.000425   0.004632  -0.029865   0.005006  -0.000154   0.405125
    15  H    0.008490  -0.001114  -0.032661  -0.000957  -0.000324   0.403058
    16  H    0.004419  -0.000238  -0.001317   0.004694  -0.000144   0.010950
    17  H    0.006438  -0.000572   0.002548  -0.000708  -0.000335  -0.010915
    18  H   -0.000019   0.000002  -0.000109   0.006240   0.000458  -0.000050
    19  H   -0.000028   0.000000  -0.000065   0.001145  -0.000548   0.000256
    20  H    0.000004  -0.000001   0.000831  -0.008248   0.012950  -0.000168
    21  H   -0.000032   0.000000  -0.037585   0.001147  -0.000345  -0.008286
    22  H   -0.000018   0.000002  -0.042258   0.005960   0.000549  -0.003807
    23  H    0.000005  -0.000001  -0.033402  -0.006460   0.010005   0.008655
    24  H   -0.029892  -0.005396   0.003950  -0.001127  -0.000062  -0.059339
    25  H    0.000003  -0.000002   0.000131  -0.010105   0.009404  -0.000089
    26  H   -0.000021   0.000001  -0.000222   0.006390  -0.000204  -0.000049
    27  H   -0.000160   0.000027   0.000989  -0.001374  -0.000125  -0.001531
    28  H   -0.000008   0.000002  -0.034516   0.006248  -0.000301  -0.003802
    29  H    0.000006  -0.000001  -0.037044  -0.010284   0.012289   0.009224
    30  H   -0.000201  -0.000027  -0.032977  -0.001110  -0.000121  -0.007499
    31  O    0.000000   0.000000   0.000000   0.000001  -0.000009   0.000000
    32  O    0.000000   0.000000  -0.000002  -0.000010  -0.000486   0.000000
    33  N    0.000000   0.000000  -0.000003  -0.000045  -0.000915   0.000000
    34  C    0.000000   0.000000   0.000014  -0.000257   0.003436   0.000000
    35  C    0.000000   0.000000  -0.000707   0.007161  -0.067733   0.000007
    36  C    0.000000   0.000000   0.000004   0.000023   0.001454   0.000000
    37  H    0.000000   0.000000   0.000000   0.000007  -0.000146   0.000000
    38  H    0.000000   0.000000   0.000000  -0.000003   0.000058   0.000000
    39  H    0.000000   0.000000  -0.000001   0.000071   0.000390   0.000000
    40  H    0.000000   0.000000   0.000000  -0.000001   0.000007   0.000000
    41  H    0.000000   0.000000   0.000551  -0.007562   0.005706  -0.000045
    42  H    0.000000   0.000000   0.000005  -0.000099   0.000446   0.000000
    43  H    0.000000   0.000000   0.000031  -0.000101   0.000775   0.000000
               7          8          9         10         11         12
     1  O    0.252732  -0.056574   0.003725  -0.000101  -0.000143  -0.000085
     2  H   -0.040087   0.010137  -0.000728   0.000028  -0.000001   0.000008
     3  C   -0.045514   0.005167  -0.100539   0.007584   0.324199  -0.002731
     4  N   -0.009674  -0.035268   0.185529  -0.070045  -0.071986  -0.073806
     5  O    0.000174   0.006120  -0.080601   0.000753   0.004194  -0.005317
     6  C    0.310451  -0.100770   0.012489  -0.002843  -0.066236   0.001792
     7  C    5.006937   0.288135  -0.043600   0.008939   0.008502  -0.008617
     8  C    0.288135   5.349492   0.197355  -0.071761  -0.003171  -0.084828
     9  C   -0.043600   0.197355   5.577740   0.329502   0.008915   0.302969
[...]
 000153,-0.00000012,0.00000083,0.00000023,0.00000006,-0.00000648,0.0000
 1172,-0.00003034,-0.00038529,0.00045717,0.00011039,0.00052421,0.000150
 39,-0.00054088,-0.00018077,-0.00034844,-0.00008002,0.00000242,-0.00001
 042,-0.00001267,-0.00000201,0.00000053,-0.00000047,-0.00000037,0.00001
 008,-0.00002501,-0.00214137,-0.00012203,0.00130370,-0.00280772,-0.0006
 4907,0.00029952,-0.09698014,-0.04448403,-0.09324220,0.02486974,0.01231
 059,0.00904775,0.00001336,0.00041278,-0.00023452,0.00644719,0.00104800
 ,-0.00117117,0.00412024,-0.00100803,-0.00383778,-0.03134288,-0.0175360
 0,-0.00979059,0.09877918,0.05143633,0.09867789,0.00000356,0.00000276,-
 0.00000253,0.00000036,0.00000070,0.,-0.00000066,-0.00000610,0.00000111
 ,-0.00000144,0.00000058,0.00000101,0.00000714,0.00001319,-0.00000244,-
 0.00000073,0.00000089,-0.00000052,0.,-0.00000409,0.00000227,-0.0000051
 6,0.00000818,-0.00000534,0.00001621,-0.00000554,0.00000745,-0.00002558
 ,0.00001712,-0.00000629,0.00000048,0.00000093,-0.00000175,-0.00000291,
 -0.00000456,0.00000220,0.00000167,0.00000209,0.00000017,0.00000052,0.0
 0000077,-0.00000032,-0.00000016,-0.00000019,-0.00000023,0.00000005,-0.
 00000061,-0.00000011,-0.00000092,-0.00000032,0.00000004,-0.00000075,-0
 .00000299,0.00000005,0.00000729,0.00000403,-0.00000103,0.00001780,-0.0
 0002415,-0.00000027,-0.00000032,-0.00000029,-0.00000004,0.,0.00000085,
 0.00000031,0.00000023,-0.00000034,0.00000021,0.00000009,0.00000051,-0.
 00000018,-0.00000009,0.00000174,0.00000353,0.00000237,-0.00000119,0.00
 000218,-0.00000018,-0.00000094,-0.00000224,-0.00000063,0.00000082,-0.0
 0000072,-0.00000050,-0.00000029,0.00000052,0.00000003,-0.00000004,0.00
 000010,-0.12779804,0.03095051,-0.19659984,-0.00045415,0.00051433,-0.00
 521922,0.00050251,-0.00016821,0.00121301,-0.00371202,-0.00000613,0.002
 34045,-0.00007411,0.00008513,0.00002748,0.01813564,-0.00653068,0.04011
 830,0.00010314,0.00012858,0.00007012,-0.00024773,0.00007590,0.00024168
 ,0.00005452,-0.00002814,0.00001570,0.11331291,0.00000262,0.00000113,-0
 .00000252,-0.00000012,-0.00000019,0.00000077,-0.00000035,-0.00000367,0
 .00000093,-0.00000140,0.00000020,0.00000267,0.00000639,0.00000190,-0.0
 0000538,-0.00000078,-0.00000012,-0.00000098,-0.00000028,-0.00000078,0.
 00000230,-0.00000193,0.00000191,-0.00000158,0.00000172,0.00000113,0.00
 000242,-0.00000787,-0.00000193,0.00000060,0.00000009,0.00000074,-0.000
 00062,0.00000054,0.00000250,0.00000154,0.00000027,0.00000132,0.0000000
 6,0.00000051,0.00000072,-0.00000053,-0.00000005,-0.00000028,0.00000035
 ,0.00000046,-0.00000045,-0.00000044,-0.00000035,0.00000003,0.00000028,
 0.00000205,0.00000006,-0.00000168,-0.00000062,0.00000057,-0.00000069,-
 0.00001175,-0.00000896,0.00001007,-0.00000095,-0.00000070,-0.00000012,
 0.00000015,0.00000095,-0.00000053,0.00000095,-0.00000107,0.00000040,-0
 .00000040,0.,-0.00000033,-0.00000046,0.00000076,0.00000270,0.00000024,
 -0.00000111,-0.00000069,0.00000022,0.00000051,-0.00000153,-0.00000049,
 0.00000070,-0.00000049,0.00000039,-0.00000016,0.00000027,0.00000024,-0
 .00000051,-0.00000041,0.02464668,-0.02415683,0.06136812,0.00119388,-0.
 00523350,-0.00154120,0.00063255,0.00000588,0.00050122,-0.00142579,0.00
 478981,0.00032783,-0.00015450,0.00005324,-0.00092697,-0.00040065,0.002
 18773,0.00614813,0.00076750,0.00001368,0.00023208,-0.00017202,0.000133
 56,0.00000593,0.00005952,0.00000996,-0.00002342,-0.02479440,0.02193561
 ,-0.00001038,-0.00001424,0.00000936,-0.00000097,0.00000165,-0.00000110
 ,0.00000641,0.00001982,-0.00000424,-0.00000426,-0.00000338,0.00000125,
 -0.00001772,-0.00004483,-0.00000663,0.00000353,-0.00000130,0.00000545,
 -0.00000881,0.00001470,-0.00000792,0.00002066,-0.00003330,0.00001877,-
 0.00006337,0.00002479,-0.00002391,0.00011731,-0.00005593,0.00001802,-0
 .00000041,-0.00000509,0.00000466,0.00001233,-0.00000553,0.00000060,-0.
 00000136,-0.00000796,0.00000077,-0.00000161,-0.00000367,0.00000102,-0.
 00000081,0.00000083,-0.00000210,0.00000097,0.00000117,0.00000028,0.000
 00087,0.00000016,-0.00000170,0.00000374,0.00000776,0.00000184,-0.00003
 444,-0.00002263,0.00000281,-0.00002353,0.00012067,-0.00002099,-0.00000
 055,0.00000105,-0.00000033,0.00000013,-0.00000300,-0.00000119,-0.00000
 023,0.00000165,0.00000021,0.00000249,-0.00000036,0.00000111,-0.0000047
 9,0.00001305,-0.00001575,0.00000115,0.00000317,-0.00000766,-0.00000682
 ,-0.00000699,0.00001044,0.00000189,-0.00000258,0.00000206,-0.00000184,
 0.00000163,-0.00000078,-0.00000099,0.00000249,-0.00000121,-0.15001200,
 0.06053084,-0.41335642,-0.00833541,-0.00166835,0.00669280,-0.00042410,
 0.00053538,-0.00057317,0.00496696,-0.00043851,0.00049100,-0.00011799,0
 .00011054,0.00032297,-0.00400326,0.00723882,-0.04413380,-0.00001412,-0
 .00029531,0.00065523,0.00037636,-0.00004441,-0.00003099,0.00006888,0.0
 0007518,-0.00030658,0.15783131,-0.06628658,0.45017208,0.00005252,0.000
 03205,-0.00003947,-0.00000154,-0.00000031,0.00000786,0.00001285,-0.000
 21608,0.00000716,-0.00064005,-0.00037331,0.00040781,-0.00073611,-0.000
 34078,-0.00032820,-0.00004531,0.00004687,-0.00002579,-0.00001385,-0.00
 004031,0.00005607,-0.00004679,-0.00001086,-0.00006151,-0.00036121,-0.0
 0008190,0.00014677,-0.00031089,-0.00026967,-0.00003173,0.00000627,0.00
 003057,-0.00005636,0.00007541,-0.00016103,0.00009318,0.00003104,0.0000
 8283,0.00000881,0.00002782,0.00001907,-0.00001581,0.00000439,-0.000004
 27,0.00000894,0.00003272,-0.00000099,-0.00001604,-0.00000172,0.0000082
 2,-0.00000353,0.00013567,0.00002012,-0.00000393,0.00009766,0.00002582,
 -0.00001905,-0.00068901,0.00039391,-0.00024878,-0.00000007,-0.00000945
 ,0.00000216,0.00000003,0.00002806,0.00001195,0.00001542,-0.00001228,-0
 .00000466,-0.00000821,-0.00000160,-0.00000380,-0.00044086,-0.00002275,
 0.00085789,0.00000300,0.00001464,-0.00004839,-0.00002370,-0.00000295,-
 0.00004068,-0.00001993,0.00002249,-0.00003022,0.00001997,0.00000887,0.
 00000285,0.00000272,-0.00000713,-0.00000184,-0.00007967,-0.00016055,0.
 00018289,0.00000810,-0.00039260,0.00040176,0.00173323,-0.00085083,-0.0
 0069422,0.00882013,0.00797787,0.00318366,-0.20733562,-0.12316156,-0.04
 747477,0.00118378,-0.00020379,0.00039452,0.00019360,0.00293103,-0.0000
 0699,0.00001560,-0.00005823,0.00012749,-0.00009546,-0.00020178,-0.0002
 1863,0.00004212,-0.00002511,-0.00001034,0.22125242,0.00002065,-0.00001
 865,-0.00001519,-0.00000737,-0.00000045,0.00000830,-0.00000838,-0.0002
 8063,-0.00006063,-0.00014911,-0.00000979,0.00048884,-0.00044674,-0.001
 31968,-0.00038039,-0.00005463,0.00006234,-0.00001566,-0.00004180,0.000
 02528,0.00004732,0.00000567,-0.00016124,-0.00002532,-0.00027944,0.0003
 5024,0.00001292,0.00025466,0.00011379,-0.00030106,0.00001318,0.0000154
 4,-0.00005532,0.00025605,-0.00022080,0.00010258,0.00002632,0.00012650,
 0.00001614,0.00003489,0.00001134,-0.00001965,0.00000352,-0.00000804,0.
 00000511,0.00004676,0.00000426,-0.00001527,-0.00000746,0.00000335,0.00
 000056,-0.00005411,-0.00004715,0.00003007,-0.00013221,-0.00003456,0.00
 002656,0.00062252,-0.00002531,0.00032048,-0.00000124,-0.00001273,0.000
 00176,-0.00000118,0.00002818,0.00000970,0.00001136,-0.00001612,-0.0000
 0394,-0.00000363,-0.00000190,-0.00000538,-0.00007146,0.00035287,-0.000
 03858,-0.00003372,-0.00001398,-0.00006433,-0.00009344,-0.00002246,0.00
 003301,-0.00002540,0.00002123,-0.00004043,0.00003557,-0.00003859,0.000
 03207,0.00000059,-0.00000095,-0.00001149,0.00023653,0.00002702,0.00034
 599,0.00087705,0.00038739,0.00007063,-0.00009146,0.00361243,0.00085131
 ,-0.02414973,-0.02085941,-0.00507328,-0.12240965,-0.14275757,-0.037659
 64,-0.00272857,-0.00003504,-0.00162823,0.00242463,-0.00512431,0.000732
 83,0.00013712,-0.00020617,-0.00030952,0.00089421,-0.00035821,-0.000368
 15,-0.00002761,-0.00008397,0.00002958,0.13260017,0.15761301,-0.0000642
 2,-0.00004142,0.00002990,0.00000006,0.00000200,-0.00000186,0.00016595,
 0.00013515,0.00006956,-0.00017557,0.00016336,-0.00009859,-0.00011266,-
 0.00039407,-0.00097936,0.00000924,0.00001055,0.00001232,0.00002839,0.0
 0004942,-0.00003512,0.00000698,-0.00003584,-0.00009911,0.00019066,0.00
 008484,0.00014237,-0.00003075,-0.00007078,-0.00009258,-0.00001056,-0.0
 0001559,0.00002820,0.00049415,0.00010554,0.00001471,-0.00002409,-0.000
 07833,0.00001205,-0.00000468,-0.00001495,0.00000227,-0.00000330,0.0000
 0292,-0.00000578,0.00001208,0.00000329,0.00000737,-0.00004834,-0.00002
 564,-0.00000195,0.00000659,0.00002343,0.00000061,-0.00006853,-0.000011
 70,-0.00001895,-0.00018329,-0.00000259,0.00024364,-0.00000268,0.000005
 13,-0.00000205,-0.00000057,-0.00001740,-0.00000733,-0.00000361,0.00000
 776,0.00000181,0.00000232,0.00000567,-0.00001297,0.00053583,0.00013336
 ,-0.00116784,-0.00014884,0.00000079,0.00004832,-0.00021303,-0.00006322
 ,0.00008804,0.00001644,-0.00002148,0.00001297,-0.00001248,0.00002556,-
 0.00001926,-0.00000386,0.00001184,-0.00001245,-0.00013843,-0.00018139,
 -0.00017737,0.00007844,-0.00023978,0.00014513,-0.00029063,0.00023602,-
 0.00018029,0.00220070,0.00159126,-0.00071443,-0.04741837,-0.03682220,-
 0.06305453,0.00108940,0.00080437,0.00044055,-0.00016123,0.00065071,0.0
 0096543,-0.00017710,-0.00014526,-0.00016498,0.00007736,-0.00042805,0.0
 0011446,-0.00003888,0.00005647,-0.00002567,0.05113699,0.03902066,0.064
 15215,-0.00004293,-0.00002951,0.00002455,-0.00000011,0.00000076,-0.000
 00219,0.00002405,0.00011183,0.00004032,0.00001841,-0.00004639,-0.00007
 520,-0.00030799,-0.00036512,-0.00014145,0.00001639,-0.00001755,0.00001
 525,0.00001214,0.00003244,-0.00003021,0.00003150,-0.00003333,-0.000010
 29,0.00003281,0.00002749,0.00000954,0.00011017,0.00005227,-0.00009126,
 -0.00000588,-0.00001374,0.00002693,0.00024492,0.00002413,0.00003806,-0
 .00001972,-0.00004761,0.00000039,-0.00001232,-0.00001198,0.00000552,-0
 .00000320,0.00000202,-0.00000413,-0.00000037,0.00000345,0.00000495,-0.
 00001618,-0.00001005,-0.00000377,-0.00003296,0.00000138,0.00001550,-0.
 00007977,-0.00003475,0.00000706,0.00008267,-0.00003919,0.00013021,-0.0
 0000122,0.00000329,-0.00000250,0.00000021,-0.00001335,-0.00000635,-0.0
 0000352,0.00000547,0.00000087,0.00000188,0.00000105,-0.00000407,-0.000
 11493,0.00008290,-0.00016034,-0.00003697,0.00000757,0.00000307,-0.0001
 0037,-0.00003823,0.00003514,0.00001223,-0.00001339,0.00001165,-0.00000
 561,0.00000655,-0.00000596,-0.00000296,0.00000841,-0.00000643,0.000827
 27,-0.00068347,-0.00022505,0.00032882,0.00016301,-0.00039550,-0.000050
 98,0.00367818,0.00096627,-0.00682359,-0.00086862,0.00378737,-0.1994644
 8,0.03140596,0.13158801,-0.00159379,0.00009779,0.00189904,0.00034446,0
 .00021869,-0.00020183,-0.00011762,-0.00031537,-0.00030799,0.00067017,-
 0.00050073,-0.00005649,0.00009657,-0.00013718,-0.00020217,-0.01584248,
 0.00546638,0.01556052,0.21263621,-0.00003355,-0.00002150,0.00001875,0.
 00000046,0.00000119,-0.00000200,0.00002700,0.00008911,0.00003676,0.000
 02461,-0.00000911,-0.00006026,-0.00018097,-0.00025829,-0.00015666,0.00
 001302,-0.00001249,0.00001084,0.00001262,0.00002355,-0.00002350,0.0000
 0897,-0.00001793,-0.00003352,0.00001355,-0.00001437,0.00005921,0.00003
 141,0.00003498,0.00000006,-0.00000498,-0.00001021,0.00002023,0.0002020
 2,-0.00000805,0.00002360,-0.00001769,-0.00003771,0.00000259,-0.0000091
 2,-0.00000874,0.00000409,-0.00000259,0.00000169,-0.00000343,0.00000137
 ,0.00000252,0.00000332,-0.00002140,-0.00001104,-0.00000363,-0.00004836
 ,0.00000145,0.00000887,-0.00003379,0.00000060,-0.00000673,0.00004334,-
 0.00008645,0.00002696,-0.00000054,0.00000285,-0.00000188,0.00000027,-0
 .00001046,-0.00000466,-0.00000283,0.00000460,0.00000065,0.00000116,0.0
 0000185,-0.00000471,-0.00006520,-0.00002820,-0.00011684,-0.00008395,0.
 00001093,0.00004259,-0.00011244,-0.00001635,0.00004754,0.00000993,-0.0
 0001125,0.00000882,-0.00000281,0.00000791,-0.00000688,-0.00000155,0.00
 000658,-0.00000535,-0.00043319,-0.00004851,0.00017411,-0.00032724,-0.0
 0010307,0.00030466,0.00455680,-0.00753925,-0.00147608,0.02188870,-0.00
 045040,-0.02006407,0.02883688,-0.05404097,-0.02552963,0.00154466,0.000
 49374,-0.00136668,-0.00081640,0.00108215,-0.00024657,-0.00011389,0.000
 25473,0.00080596,-0.00016568,-0.00043594,-0.00020065,-0.00018928,0.000
 12739,0.00032504,-0.01287419,0.00407089,0.01388650,-0.03556629,0.05661
 362,0.00000377,0.00000310,-0.00000089,-0.00000001,0.00000011,-0.000000
 50,0.,-0.00000133,0.00000651,0.00002104,0.00001598,-0.00000567,0.00000
 892,-0.00004541,-0.00003707,0.00000113,-0.00000098,0.00000035,-0.00000
 231,-0.00000516,0.00000212,0.00000256,0.00000462,0.00002204,0.00003851
 ,-0.00000524,-0.00005544,0.00000197,0.00002880,-0.00001168,0.00000026,
 0.00000059,0.00000060,-0.00008100,-0.00001549,0.00006496,0.00000100,-0
 .00000081,-0.00000245,-0.00000038,0.00000064,0.00000007,-0.00000043,0.
 00000014,-0.00000014,-0.00000338,-0.00000010,0.00000024,0.00000766,0.0
 0000466,-0.00000164,-0.00001603,-0.00000043,0.00000212,-0.00000875,-0.
 00000186,0.00000649,0.00003498,-0.00003021,0.00000274,-0.00000028,0.00
 000036,-0.00000007,-0.00000006,-0.00000001,0.00000003,-0.00000043,-0.0
 0000018,0.00000052,-0.00000032,-0.00000110,0.00000156,-0.00005778,-0.0
 0006356,-0.00002329,0.00000367,0.00000288,0.00000660,0.00001523,0.0000
 1087,-0.00000224,0.00000050,0.00000064,0.00000156,-0.00000133,-0.00000
 087,-0.00000043,-0.00000044,-0.00000107,0.00000199,-0.00032864,0.00081
 224,-0.00051891,0.00023398,0.00007875,0.00026754,0.00022488,-0.0001034
 4,0.00092252,-0.00247091,0.00062683,0.00008219,0.13246160,-0.02803700,
 -0.16141865,-0.00053744,-0.00023497,-0.00032456,0.00002931,-0.00027837
 ,0.00017557,-0.00019254,0.00039035,0.00055246,0.00003829,-0.00015030,-
 0.00011299,0.00000600,0.00012132,-0.00005131,-0.00681939,0.00252201,0.
 00576495,-0.14478811,0.02941921,0.17168709,0.00000702,0.00000625,0.000
 00172,-0.00000067,-0.00000120,-0.00000152,-0.00002768,0.00001811,0.000
 02127,0.00004818,-0.00008895,-0.00002014,-0.00020783,-0.00017731,0.000
 11839,0.00000643,-0.00001447,0.00000560,-0.00000779,-0.00001142,-0.000
 00303,0.00001792,0.00000541,0.00007765,0.00005674,-0.00001299,-0.00017
 506,0.00003867,0.00004981,-0.00002657,-0.00000150,-0.00000028,0.000007
 51,-0.00020937,0.00003780,0.00008123,-0.00000531,-0.00000803,-0.000007
 27,-0.00000671,-0.00000078,0.00000309,-0.00000007,0.00000102,0.0000002
 8,-0.00001424,0.00000094,0.00000256,0.00002763,0.00001273,-0.00000110,
 -0.00004189,-0.00000385,0.00000976,-0.00003090,-0.00001718,0.00002084,
 0.00012239,-0.00002204,0.00001489,0.00000016,0.00000133,0.00000063,-0.
 00000039,-0.00000277,-0.00000071,-0.00000208,0.00000218,0.00000040,0.0
 0000084,-0.00000381,0.00000796,-0.00008494,-0.00014016,-0.00005163,0.0
 0005569,0.00000020,-0.00000310,0.00008121,0.00002697,-0.00001410,0.000
 00421,0.00000112,0.00000768,-0.00000218,-0.00000492,-0.00000426,-0.000
 00149,-0.00000479,0.00000868,0.00050235,-0.00049835,-0.00020892,-0.000
 13739,-0.00014829,-0.00050217,0.00062728,-0.00103830,-0.00041179,-0.00
 408532,0.00384457,-0.00818377,-0.07522803,0.01780918,-0.08193298,-0.00
 021750,0.00168252,0.00186056,0.00025253,-0.00019618,0.00073553,-0.0003
 7651,0.00060557,0.00049363,-0.00002757,-0.00000544,-0.00015851,0.00002
 086,-0.00017953,-0.00011266,-0.00707397,0.00685056,-0.02227640,0.00918
 907,-0.00610882,0.02217471,0.07673213,-0.00000496,-0.00000147,0.000004
 82,0.00000017,0.,-0.00000142,-0.00001659,0.00003473,0.00001666,0.00003
 621,-0.00007584,-0.00002639,-0.00014435,-0.00013452,0.00010451,0.00000
 743,-0.00001286,0.00000809,0.00000243,-0.00000043,-0.00000714,0.000004
 11,0.00000580,0.00002053,0.00005721,0.00000052,-0.00005479,-0.00000635
 ,0.00003848,-0.00004654,-0.00000156,-0.00000308,0.00000949,-0.00007172
 ,0.00001617,0.00001270,-0.00001053,-0.00001474,0.00000187,-0.00000679,
 -0.00000337,0.00000321,0.00000010,0.00000092,-0.00000121,-0.00000704,0
 .00000030,0.00000224,0.00000650,0.00000187,0.00000016,-0.00002768,-0.0
 0000276,0.00000896,-0.00001969,-0.00000904,0.00000760,0.00008033,-0.00
 007645,0.00004482,0.00000021,0.00000177,0.00000012,-0.00000039,-0.0000
 0453,-0.00000144,-0.00000199,0.00000278,0.00000012,0.00000046,-0.00000
 084,0.00000234,0.00011216,0.00005140,-0.00007988,0.00002383,-0.0000005
 4,-0.00000009,0.00001988,0.00000105,-0.00000130,0.00000720,-0.00000233
 ,0.00000599,0.00000580,0.00001190,-0.00000751,-0.00000126,0.00000005,0
 .00000248,-0.00060851,0.00030682,0.00176152,0.00235613,0.00091367,0.00
 248002,-0.00241349,0.00261308,0.00055572,0.01219842,-0.01253949,0.0321
 0270,0.01788775,-0.05614866,0.05217494,0.00012619,-0.00612952,-0.00552
 165,-0.00056004,0.00181099,-0.00024067,0.00050291,-0.00015748,-0.00099
 508,0.00012084,-0.00007020,0.00003613,-0.00001350,0.00022227,-0.000115
 98,-0.00475826,0.00483216,-0.01840689,-0.00261516,0.00034797,-0.005066
 19,-0.02226643,0.06417344,-0.00000934,-0.00000475,0.00000730,-0.000000
 20,-0.00000074,-0.00000086,-0.00000314,0.00003864,0.00001735,-0.000012
 55,-0.00006747,-0.00003107,-0.00018615,-0.00013533,0.00000142,0.000006
 75,-0.00001023,0.00000585,0.00000115,0.00000434,-0.00000978,0.00001914
 ,-0.00000495,0.00002053,0.00001197,-0.00001914,-0.00004021,0.00005699,
 0.00002165,-0.00002531,-0.00000270,-0.00000373,0.00000982,0.00001458,0
 .00000402,0.00003615,-0.00000592,-0.00001832,-0.00000513,-0.00000586,-
 0.00000314,0.00000234,-0.00000040,0.00000093,-0.00000051,-0.00000391,0
 .00000112,0.00000294,0.00000443,0.00000236,-0.00000232,-0.00001256,0.0
 0000055,0.00000623,-0.00002039,-0.00001247,0.00000711,0.00001824,0.000
 00083,0.00002325,0.00000048,0.00000143,-0.00000003,-0.00000008,-0.0000
 0442,-0.00000162,-0.00000199,0.00000266,-0.00000049,0.00000054,-0.0000
 0072,0.00000161,-0.00015947,-0.00007340,0.00000946,0.00001095,-0.00000
 406,-0.00000452,-0.00000948,-0.00000082,0.00000007,0.00000398,-0.00000
 300,0.00000611,-0.00001301,-0.00001137,-0.00000267,-0.00000219,0.00000
 071,0.00000161,-0.00036980,0.00038414,-0.00038878,-0.00026565,0.000253
 77,0.00005728,-0.00025886,-0.00016624,0.00202526,0.00132637,-0.0015561
 8,-0.00108239,-0.08147424,0.05456862,-0.27825458,0.00148104,-0.0006022
 3,0.00120336,0.00008542,0.00056764,0.00028202,-0.00047672,0.00026348,0
 .00017823,0.00009831,-0.00009727,-0.00003398,-0.00000327,0.00001022,0.
 00016071,-0.00083464,0.00138302,-0.00542436,-0.00744898,0.00408338,-0.
 01700492,0.08844114,-0.05879353,0.29824756\\-0.00000085,0.,-0.00000201
 ,-0.00000128,-0.00000030,-0.00000245,-0.00000079,0.00000001,-0.0000019
 6,-0.00000036,0.00000049,-0.00000071,-0.00000010,0.00000041,-0.0000003
 7,-0.00000099,0.00000026,-0.00000217,-0.00000072,0.,-0.00000153,-0.000
 00015,0.00000031,-0.00000069,0.00000008,0.00000021,0.00000007,0.000000
 36,0.00000111,0.00000044,-0.00000080,0.00000083,-0.00000226,-0.0000000
 2,-0.00000083,0.00000038,-0.00000104,-0.00000092,-0.00000176,-0.000001
 30,-0.00000008,-0.00000277,-0.00000076,0.00000107,-0.00000230,-0.00000
 006,0.00000003,-0.00000016,-0.00000015,0.00000112,-0.00000079,0.000000
 81,0.00000080,0.00000112,0.00000059,0.00000167,0.00000024,0.00000075,0
 .00000073,0.00000107,-0.00000064,0.00000162,-0.00000223,-0.00000126,0.
 00000070,-0.00000304,-0.00000078,0.00000067,-0.00000207,-0.00000091,-0
 .00000101,-0.00000134,-0.00000002,-0.00000124,0.00000078,0.00000014,-0
 .00000101,0.00000095,-0.00000039,-0.00000144,-0.00000007,-0.00000144,-
 0.00000111,-0.00000247,-0.00000092,-0.00000104,-0.00000136,-0.00000106
 ,-0.00000150,-0.00000150,0.00000177,0.00000099,0.00000312,0.00000128,0
 .00000181,0.00000361,0.00000148,-0.00000149,0.00000177,0.00000076,-0.0
 0000039,0.00000239,0.00000095,-0.00000087,0.00000146,0.00000140,0.0000
 0043,0.00000263,0.00000130,-0.00000085,0.00000322,0.00000058,-0.000000
 78,0.00000259,0.00000062,-0.00000013,0.00000240,0.00000199,0.00000182,
 0.00000288,0.00000067,-0.00000009,0.00000126,0.00000089,-0.00000047,0.
 00000193,0.00000035,-0.00000153,0.00000171\\\@


 It takes a long time to grow an old friend.
                            -- John Leonard
 Job cpu time:       0 days 16 hours 49 minutes 16.0 seconds.
 Elapsed time:       0 days  1 hours  3 minutes 23.1 seconds.
 File lengths (MBytes):  RWF=   1838 Int=      0 D2E=      0 Chk=     44 Scr=      1
 Normal termination of Gaussian 16 at Mon Apr 26 21:18:17 2021.
