 Entering Gaussian System, Link 0=g16
 Input=Tem_Ala_2.gjf
 Output=Tem_Ala_2.log
 Initial command:
 /share/apps/g16/l1.exe "/backup/31482.cluster.hpc/Gau-32734.inp" -scrdir="/backup/31482.cluster.hpc/"
 Entering Link 1 = /share/apps/g16/l1.exe PID=     32735.
  
 Copyright (c) 1988,1990,1992,1993,1995,1998,2003,2009,2016,
            Gaussian, Inc.  All Rights Reserved.
  
 This is part of the Gaussian(R) 16 program.  It is based on
 the Gaussian(R) 09 system (copyright 2009, Gaussian, Inc.),
 the Gaussian(R) 03 system (copyright 2003, Gaussian, Inc.),
 the Gaussian(R) 98 system (copyright 1998, Gaussian, Inc.),
 the Gaussian(R) 94 system (copyright 1995, Gaussian, Inc.),
 the Gaussian 92(TM) system (copyright 1992, Gaussian, Inc.),
 the Gaussian 90(TM) system (copyright 1990, Gaussian, Inc.),
 the Gaussian 88(TM) system (copyright 1988, Gaussian, Inc.),
 the Gaussian 86(TM) system (copyright 1986, Carnegie Mellon
 University), and the Gaussian 82(TM) system (copyright 1983,
 Carnegie Mellon University). Gaussian is a federally registered
 trademark of Gaussian, Inc.
  
 This software contains proprietary and confidential information,
 including trade secrets, belonging to Gaussian, Inc.
  
 This software is provided under written license and may be
 used, copied, transmitted, or stored only in accord with that
 written license.
  
 The following legend is applicable only to US Government
 contracts under FAR:
  
                    RESTRICTED RIGHTS LEGEND
  
 Use, reproduction and disclosure by the US Government is
 subject to restrictions as set forth in subparagraphs (a)
 and (c) of the Commercial Computer Software - Restricted
 Rights clause in FAR 52.227-19.
  
 Gaussian, Inc.
 340 Quinnipiac St., Bldg. 40, Wallingford CT 06492
  
  
 ---------------------------------------------------------------
 Warning -- This program may not be used in any manner that
 competes with the business of Gaussian, Inc. or will provide
 assistance to any competitor of Gaussian, Inc.  The licensee
 of this program is prohibited from giving any competitor of
 Gaussian, Inc. access to this program.  By using this program,
 the user acknowledges that Gaussian, Inc. is engaged in the
 business of creating and licensing software in the field of
 computational chemistry and represents and warrants to the
 licensee that it is not a competitor of Gaussian, Inc. and that
 it will not use this program in any manner prohibited above.
 ---------------------------------------------------------------
  

 Cite this work as:
 Gaussian 16, Revision A.03,
 M. J. Frisch, G. W. Trucks, H. B. Schlegel, G. E. Scuseria, 
 M. A. Robb, J. R. Cheeseman, G. Scalmani, V. Barone, 
 G. A. Petersson, H. Nakatsuji, X. Li, M. Caricato, A. V. Marenich, 
 J. Bloino, B. G. Janesko, R. Gomperts, B. Mennucci, H. P. Hratchian, 
 J. V. Ortiz, A. F. Izmaylov, J. L. Sonnenberg, D. Williams-Young, 
 F. Ding, F. Lipparini, F. Egidi, J. Goings, B. Peng, A. Petrone, 
 T. Henderson, D. Ranasinghe, V. G. Zakrzewski, J. Gao, N. Rega, 
 G. Zheng, W. Liang, M. Hada, M. Ehara, K. Toyota, R. Fukuda, 
 J. Hasegawa, M. Ishida, T. Nakajima, Y. Honda, O. Kitao, H. Nakai, 
 T. Vreven, K. Throssell, J. A. Montgomery, Jr., J. E. Peralta, 
 F. Ogliaro, M. J. Bearpark, J. J. Heyd, E. N. Brothers, K. N. Kudin, 
 V. N. Staroverov, T. A. Keith, R. Kobayashi, J. Normand, 
 K. Raghavachari, A. P. Rendell, J. C. Burant, S. S. Iyengar, 
 J. Tomasi, M. Cossi, J. M. Millam, M. Klene, C. Adamo, R. Cammi, 
 J. W. Ochterski, R. L. Martin, K. Morokuma, O. Farkas, 
 J. B. Foresman, and D. J. Fox, Gaussian, Inc., Wallingford CT, 2016.
 
 ******************************************
 Gaussian 16:  ES64L-G16RevA.03 25-Dec-2016
                21-Dec-2020 
 ******************************************
 %mem=2GB
 %nprocshared=16
 Will use up to   16 processors via shared memory.
 %chk=Tem_Ala_2.chk
 -----------------------------------------------------
 # scrf=(solvent=water,pcm) opt freq m062x/6-311g(d,p)
 -----------------------------------------------------
 1/18=20,19=15,26=3,38=1/1,3;
 2/9=110,12=2,17=6,18=5,40=1/2;
 3/5=4,6=6,7=101,11=2,25=1,30=1,70=2201,71=1,72=1,74=-55/1,2,3;
 4//1;
 5/5=2,38=5,53=1/2;
 6/7=2,8=2,9=2,10=2,28=1/1;
 7//1,2,3,16;
 1/18=20,19=15,26=3/3(2);
 2/9=110/2;
 99//99;
 2/9=110/2;
 3/5=4,6=6,7=101,11=2,25=1,30=1,70=2205,71=1,72=1,74=-55/1,2,3;
 4/5=5,16=3,69=1/1;
 5/5=2,38=5,53=1/2;
 7//1,2,3,16;
 1/18=20,19=15,26=3/3(-5);
 2/9=110/2;
 6/7=2,8=2,9=2,10=2,19=2,28=1/1;
 99/9=1/99;
 -------------------
 Title Card Required
 -------------------
 Symbolic Z-matrix:
 Charge =  0 Multiplicity = 2
 O                    0    -4.84023  -1.15953  -0.78058  L 
 H                    0    -5.02234  -2.05991  -0.50042  L 
 C                    0    -1.1518   -1.11984   0.14124  L 
 N                    0    -1.00849   0.35382  -0.05087  L 
 O                    0     0.13701   0.84071   0.20074  L 
 C                    0    -2.46928  -1.59151  -0.48203  L 
 C                    0    -3.66328  -0.71888  -0.12469  L 
 C                    0    -3.39915   0.69032  -0.61707  L 
 C                    0    -2.14349   1.32384  -0.01353  L 
 C                    0    -1.73172   2.53376  -0.85314  L 
 C                    0     0.02342  -1.79652  -0.56666  L 
 C                    0    -2.37094   1.76962   1.43838  L 
 C                    0    -1.07897  -1.44355   1.64047  L 
 H                    0    -2.64035  -2.62639  -0.16555  L 
 H                    0    -2.3811   -1.59493  -1.57374  L 
 H                    0    -4.25871   1.32778  -0.39444  L 
 H                    0    -3.30323   0.64092  -1.70681  L 
 H                    0    -2.57474   3.22481  -0.92165  L 
 H                    0    -1.4523    2.21881  -1.86022  L 
 H                    0    -0.88423   3.04652  -0.40108  L 
 H                    0     0.09735  -1.44565  -1.59825  L 
 H                    0    -0.14577  -2.87607  -0.57712  L 
 H                    0     0.9583   -1.59479  -0.04253  L 
 H                    0    -3.82226  -0.7171    0.96204  L 
 H                    0    -1.42047   2.08572   1.87134  L 
 H                    0    -3.06233   2.61511   1.45525  L 
 H                    0    -2.79237   0.97687   2.0574   L 
 H                    0    -1.06477  -2.52777   1.77428  L 
 H                    0    -0.15219  -1.04036   2.05149  L 
 H                    0    -1.9233   -1.04071   2.20094  L 
 O                    0     4.18334   4.32142   0.62571  H 
 O                    0     5.35242   2.80963  -0.53142  H 
 N                    0     3.07571   1.87759  -1.73471  H 
 C                    0     2.94645   2.64436  -0.50663  H 
 C                    0     2.47906   1.83619   0.71516  H 
 C                    0     4.29256   3.24821  -0.17968  H 
 H                    0     2.23763   3.46078  -0.66777  H 
 H                    0     2.2559    1.28825  -1.83116  H 
 H                    0     3.90886   1.2997   -1.68409  H 
 H                    0     5.08315   4.60547   0.83428  H 
 H                    0     3.1804    1.02111   0.9127   H 
 H                    0     2.40862   2.46691   1.60376  H 
 H                    0     1.49525   1.41802   0.49907  H 
 
 Add virtual bond connecting atoms H43        and O5         Dist= 2.85D+00.

 GradGradGradGradGradGradGradGradGradGradGradGradGradGradGradGradGradGrad
 Berny optimization.
 Initialization pass.
                           ----------------------------
                           !    Initial Parameters    !
                           ! (Angstroms and Degrees)  !
 --------------------------                            --------------------------
 ! Name  Definition              Value          Derivative Info.                !
 --------------------------------------------------------------------------------
 ! R1    R(1,2)                  0.9604         estimate D2E/DX2                !
 ! R2    R(1,7)                  1.4176         estimate D2E/DX2                !
 ! R3    R(3,4)                  1.493          estimate D2E/DX2                !
 ! R4    R(3,6)                  1.5319         estimate D2E/DX2                !
 ! R5    R(3,11)                 1.5298         estimate D2E/DX2                !
 ! R6    R(3,13)                 1.5355         estimate D2E/DX2                !
 ! R7    R(4,5)                  1.2699         estimate D2E/DX2                !
 ! R8    R(4,9)                  1.4935         estimate D2E/DX2                !
 ! R9    R(5,43)                 1.5057         estimate D2E/DX2                !
 ! R10   R(6,7)                  1.5214         estimate D2E/DX2                !
 ! R11   R(6,14)                 1.0956         estimate D2E/DX2                !
 ! R12   R(6,15)                 1.0953         estimate D2E/DX2                !
 ! R13   R(7,8)                  1.5159         estimate D2E/DX2                !
 ! R14   R(7,24)                 1.0983         estimate D2E/DX2                !
 ! R15   R(8,9)                  1.5305         estimate D2E/DX2                !
 ! R16   R(8,16)                 1.0931         estimate D2E/DX2                !
 ! R17   R(8,17)                 1.0951         estimate D2E/DX2                !
 ! R18   R(9,10)                 1.5292         estimate D2E/DX2                !
 ! R19   R(9,12)                 1.5357         estimate D2E/DX2                !
 ! R20   R(10,18)                1.0922         estimate D2E/DX2                !
 ! R21   R(10,19)                1.0916         estimate D2E/DX2                !
 ! R22   R(10,20)                1.0888         estimate D2E/DX2                !
 ! R23   R(11,21)                1.0921         estimate D2E/DX2                !
 ! R24   R(11,22)                1.0928         estimate D2E/DX2                !
 ! R25   R(11,23)                1.0906         estimate D2E/DX2                !
 ! R26   R(12,25)                1.0912         estimate D2E/DX2                !
 ! R27   R(12,26)                1.0923         estimate D2E/DX2                !
 ! R28   R(12,27)                1.0905         estimate D2E/DX2                !
 ! R29   R(13,28)                1.0925         estimate D2E/DX2                !
 ! R30   R(13,29)                1.0911         estimate D2E/DX2                !
 ! R31   R(13,30)                1.0906         estimate D2E/DX2                !
 ! R32   R(31,36)                1.3462         estimate D2E/DX2                !
 ! R33   R(31,40)                0.9663         estimate D2E/DX2                !
 ! R34   R(32,36)                1.1997         estimate D2E/DX2                !
 ! R35   R(33,34)                1.4536         estimate D2E/DX2                !
 ! R36   R(33,38)                1.0143         estimate D2E/DX2                !
 ! R37   R(33,39)                1.0152         estimate D2E/DX2                !
 ! R38   R(34,35)                1.5377         estimate D2E/DX2                !
 ! R39   R(34,36)                1.5111         estimate D2E/DX2                !
 ! R40   R(34,37)                1.0931         estimate D2E/DX2                !
 ! R41   R(35,41)                1.0933         estimate D2E/DX2                !
 ! R42   R(35,42)                1.092          estimate D2E/DX2                !
 ! R43   R(35,43)                1.0906         estimate D2E/DX2                !
 ! A1    A(2,1,7)              108.2939         estimate D2E/DX2                !
 ! A2    A(4,3,6)              109.5186         estimate D2E/DX2                !
 ! A3    A(4,3,11)             107.6571         estimate D2E/DX2                !
 ! A4    A(4,3,13)             109.2176         estimate D2E/DX2                !
 ! A5    A(6,3,11)             109.6482         estimate D2E/DX2                !
 ! A6    A(6,3,13)             111.9089         estimate D2E/DX2                !
 ! A7    A(11,3,13)            108.7915         estimate D2E/DX2                !
 ! A8    A(3,4,5)              116.0747         estimate D2E/DX2                !
 ! A9    A(3,4,9)              124.3955         estimate D2E/DX2                !
 ! A10   A(5,4,9)              115.5662         estimate D2E/DX2                !
 ! A11   A(3,6,7)              113.7523         estimate D2E/DX2                !
 ! A12   A(3,6,14)             107.9142         estimate D2E/DX2                !
 ! A13   A(3,6,15)             109.71           estimate D2E/DX2                !
 ! A14   A(7,6,14)             110.5713         estimate D2E/DX2                !
 ! A15   A(7,6,15)             107.4017         estimate D2E/DX2                !
 ! A16   A(14,6,15)            107.31           estimate D2E/DX2                !
 ! A17   A(1,7,6)              111.3836         estimate D2E/DX2                !
 ! A18   A(1,7,8)              106.4596         estimate D2E/DX2                !
 ! A19   A(1,7,24)             109.7627         estimate D2E/DX2                !
 ! A20   A(6,7,8)              108.6723         estimate D2E/DX2                !
 ! A21   A(6,7,24)             110.2989         estimate D2E/DX2                !
 ! A22   A(8,7,24)             110.1873         estimate D2E/DX2                !
 ! A23   A(7,8,9)              113.5571         estimate D2E/DX2                !
 ! A24   A(7,8,16)             109.814          estimate D2E/DX2                !
 ! A25   A(7,8,17)             107.2503         estimate D2E/DX2                !
 ! A26   A(9,8,16)             108.8724         estimate D2E/DX2                !
 ! A27   A(9,8,17)             109.8304         estimate D2E/DX2                !
 ! A28   A(16,8,17)            107.33           estimate D2E/DX2                !
 ! A29   A(4,9,8)              110.1694         estimate D2E/DX2                !
 ! A30   A(4,9,10)             107.189          estimate D2E/DX2                !
 ! A31   A(4,9,12)             108.9484         estimate D2E/DX2                !
 ! A32   A(8,9,10)             109.3857         estimate D2E/DX2                !
 ! A33   A(8,9,12)             111.8065         estimate D2E/DX2                !
 ! A34   A(10,9,12)            109.2261         estimate D2E/DX2                !
 ! A35   A(9,10,18)            109.0997         estimate D2E/DX2                !
 ! A36   A(9,10,19)            110.3163         estimate D2E/DX2                !
 ! A37   A(9,10,20)            110.7472         estimate D2E/DX2                !
 ! A38   A(18,10,19)           108.7999         estimate D2E/DX2                !
 ! A39   A(18,10,20)           109.1992         estimate D2E/DX2                !
 ! A40   A(19,10,20)           108.6442         estimate D2E/DX2                !
 ! A41   A(3,11,21)            110.3034         estimate D2E/DX2                !
 ! A42   A(3,11,22)            108.8123         estimate D2E/DX2                !
 ! A43   A(3,11,23)            110.7529         estimate D2E/DX2                !
 ! A44   A(21,11,22)           108.5917         estimate D2E/DX2                !
 ! A45   A(21,11,23)           109.6635         estimate D2E/DX2                !
 ! A46   A(22,11,23)           108.666          estimate D2E/DX2                !
 ! A47   A(9,12,25)            109.2808         estimate D2E/DX2                !
 ! A48   A(9,12,26)            109.4526         estimate D2E/DX2                !
 ! A49   A(9,12,27)            112.5119         estimate D2E/DX2                !
 ! A50   A(25,12,26)           108.7212         estimate D2E/DX2                !
 ! A51   A(25,12,27)           108.7816         estimate D2E/DX2                !
 ! A52   A(26,12,27)           108.017          estimate D2E/DX2                !
 ! A53   A(3,13,28)            109.2328         estimate D2E/DX2                !
 ! A54   A(3,13,29)            109.2807         estimate D2E/DX2                !
 ! A55   A(3,13,30)            112.7802         estimate D2E/DX2                !
 ! A56   A(28,13,29)           108.0319         estimate D2E/DX2                !
 ! A57   A(28,13,30)           108.2822         estimate D2E/DX2                !
 ! A58   A(29,13,30)           109.1195         estimate D2E/DX2                !
 ! A59   A(36,31,40)           106.733          estimate D2E/DX2                !
 ! A60   A(34,33,38)           108.3593         estimate D2E/DX2                !
 ! A61   A(34,33,39)           109.3372         estimate D2E/DX2                !
 ! A62   A(38,33,39)           109.7138         estimate D2E/DX2                !
 ! A63   A(33,34,35)           114.9041         estimate D2E/DX2                !
 ! A64   A(33,34,36)           108.3228         estimate D2E/DX2                !
 ! A65   A(33,34,37)           109.0924         estimate D2E/DX2                !
 ! A66   A(35,34,36)           107.9915         estimate D2E/DX2                !
 ! A67   A(35,34,37)           108.2149         estimate D2E/DX2                !
 ! A68   A(36,34,37)           108.1238         estimate D2E/DX2                !
 ! A69   A(34,35,41)           109.9027         estimate D2E/DX2                !
 ! A70   A(34,35,42)           111.2614         estimate D2E/DX2                !
 ! A71   A(34,35,43)           108.5589         estimate D2E/DX2                !
 ! A72   A(41,35,42)           108.9643         estimate D2E/DX2                !
 ! A73   A(41,35,43)           109.1853         estimate D2E/DX2                !
 ! A74   A(42,35,43)           108.9361         estimate D2E/DX2                !
 ! A75   A(31,36,32)           122.5803         estimate D2E/DX2                !
 ! A76   A(31,36,34)           112.069          estimate D2E/DX2                !
 ! A77   A(32,36,34)           125.2701         estimate D2E/DX2                !
 ! A78   L(4,5,43,20,-1)       180.0            estimate D2E/DX2                !
 ! A79   L(5,43,35,38,-1)      180.0            estimate D2E/DX2                !
 ! A80   L(4,5,43,20,-2)       180.0            estimate D2E/DX2                !
 ! A81   L(5,43,35,38,-2)      180.0            estimate D2E/DX2                !
 ! D1    D(2,1,7,6)             60.5383         estimate D2E/DX2                !
 ! D2    D(2,1,7,8)            178.8456         estimate D2E/DX2                !
 ! D3    D(2,1,7,24)           -61.9119         estimate D2E/DX2                !
 ! D4    D(6,3,4,5)           -167.8455         estimate D2E/DX2                !
 ! D5    D(6,3,4,9)             35.6251         estimate D2E/DX2                !
 ! D6    D(11,3,4,5)           -48.6874         estimate D2E/DX2                !
 ! D7    D(11,3,4,9)           154.7832         estimate D2E/DX2                !
 ! D8    D(13,3,4,5)            69.2793         estimate D2E/DX2                !
 ! D9    D(13,3,4,9)           -87.2501         estimate D2E/DX2                !
 ! D10   D(4,3,6,7)            -46.381          estimate D2E/DX2                !
 ! D11   D(4,3,6,14)          -169.4539         estimate D2E/DX2                !
 ! D12   D(4,3,6,15)            73.9324         estimate D2E/DX2                !
 ! D13   D(11,3,6,7)          -164.3032         estimate D2E/DX2                !
 ! D14   D(11,3,6,14)           72.6239         estimate D2E/DX2                !
 ! D15   D(11,3,6,15)          -43.9897         estimate D2E/DX2                !
 ! D16   D(13,3,6,7)            74.8826         estimate D2E/DX2                !
 ! D17   D(13,3,6,14)          -48.1903         estimate D2E/DX2                !
 ! D18   D(13,3,6,15)         -164.8039         estimate D2E/DX2                !
 ! D19   D(4,3,11,21)          -51.9856         estimate D2E/DX2                !
 ! D20   D(4,3,11,22)         -171.009          estimate D2E/DX2                !
 ! D21   D(4,3,11,23)           69.6071         estimate D2E/DX2                !
 ! D22   D(6,3,11,21)           67.0897         estimate D2E/DX2                !
 ! D23   D(6,3,11,22)          -51.9338         estimate D2E/DX2                !
 ! D24   D(6,3,11,23)         -171.3177         estimate D2E/DX2                !
 ! D25   D(13,3,11,21)        -170.2272         estimate D2E/DX2                !
 ! D26   D(13,3,11,22)          70.7494         estimate D2E/DX2                !
 ! D27   D(13,3,11,23)         -48.6346         estimate D2E/DX2                !
 ! D28   D(4,3,13,28)         -173.3642         estimate D2E/DX2                !
 ! D29   D(4,3,13,29)          -55.3709         estimate D2E/DX2                !
 ! D30   D(4,3,13,30)           66.1808         estimate D2E/DX2                !
 ! D31   D(6,3,13,28)           65.1985         estimate D2E/DX2                !
 ! D32   D(6,3,13,29)         -176.8082         estimate D2E/DX2                !
 ! D33   D(6,3,13,30)          -55.2565         estimate D2E/DX2                !
 ! D34   D(11,3,13,28)         -56.1115         estimate D2E/DX2                !
 ! D35   D(11,3,13,29)          61.8817         estimate D2E/DX2                !
 ! D36   D(11,3,13,30)        -176.5666         estimate D2E/DX2                !
 ! D37   D(3,4,35,34)          126.8182         estimate D2E/DX2                !
 ! D38   D(3,4,35,41)            7.0141         estimate D2E/DX2                !
 ! D39   D(3,4,35,42)         -111.8773         estimate D2E/DX2                !
 ! D40   D(9,4,35,34)          -74.5471         estimate D2E/DX2                !
 ! D41   D(9,4,35,41)          165.6488         estimate D2E/DX2                !
 ! D42   D(9,4,35,42)           46.7574         estimate D2E/DX2                !
 ! D43   D(3,4,9,8)            -35.3998         estimate D2E/DX2                !
 ! D44   D(3,4,9,10)          -154.3316         estimate D2E/DX2                !
 ! D45   D(3,4,9,12)            87.5922         estimate D2E/DX2                !
 ! D46   D(5,4,9,8)            167.9643         estimate D2E/DX2                !
 ! D47   D(5,4,9,10)            49.0324         estimate D2E/DX2                !
 ! D48   D(5,4,9,12)           -69.0437         estimate D2E/DX2                !
 ! D49   D(3,6,7,1)            177.0218         estimate D2E/DX2                !
 ! D50   D(3,6,7,8)             60.0522         estimate D2E/DX2                !
 ! D51   D(3,6,7,24)           -60.8372         estimate D2E/DX2                !
 ! D52   D(14,6,7,1)           -61.3704         estimate D2E/DX2                !
 ! D53   D(14,6,7,8)          -178.3399         estimate D2E/DX2                !
 ! D54   D(14,6,7,24)           60.7706         estimate D2E/DX2                !
 ! D55   D(15,6,7,1)            55.4166         estimate D2E/DX2                !
 ! D56   D(15,6,7,8)           -61.553          estimate D2E/DX2                !
 ! D57   D(15,6,7,24)          177.5575         estimate D2E/DX2                !
 ! D58   D(1,7,8,9)           -179.4973         estimate D2E/DX2                !
 ! D59   D(1,7,8,16)            58.3509         estimate D2E/DX2                !
 ! D60   D(1,7,8,17)           -57.9708         estimate D2E/DX2                !
 ! D61   D(6,7,8,9)            -59.4207         estimate D2E/DX2                !
 ! D62   D(6,7,8,16)           178.4274         estimate D2E/DX2                !
 ! D63   D(6,7,8,17)            62.1058         estimate D2E/DX2                !
 ! D64   D(24,7,8,9)            61.5375         estimate D2E/DX2                !
 ! D65   D(24,7,8,16)          -60.6144         estimate D2E/DX2                !
 ! D66   D(24,7,8,17)         -176.936          estimate D2E/DX2                !
 ! D67   D(7,8,9,4)             45.6921         estimate D2E/DX2                !
 ! D68   D(7,8,9,10)           163.2732         estimate D2E/DX2                !
 ! D69   D(7,8,9,12)           -75.6103         estimate D2E/DX2                !
 ! D70   D(16,8,9,4)           168.3646         estimate D2E/DX2                !
 ! D71   D(16,8,9,10)          -74.0544         estimate D2E/DX2                !
 ! D72   D(16,8,9,12)           47.0621         estimate D2E/DX2                !
 ! D73   D(17,8,9,4)           -74.3827         estimate D2E/DX2                !
 ! D74   D(17,8,9,10)           43.1984         estimate D2E/DX2                !
 ! D75   D(17,8,9,12)          164.3148         estimate D2E/DX2                !
 ! D76   D(4,9,10,18)          174.9501         estimate D2E/DX2                !
 ! D77   D(4,9,10,19)           55.4869         estimate D2E/DX2                !
 ! D78   D(4,9,10,20)          -64.8302         estimate D2E/DX2                !
 ! D79   D(8,9,10,18)           55.5137         estimate D2E/DX2                !
 ! D80   D(8,9,10,19)          -63.9495         estimate D2E/DX2                !
 ! D81   D(8,9,10,20)          175.7334         estimate D2E/DX2                !
 ! D82   D(12,9,10,18)         -67.1547         estimate D2E/DX2                !
 ! D83   D(12,9,10,19)         173.3822         estimate D2E/DX2                !
 ! D84   D(12,9,10,20)          53.065          estimate D2E/DX2                !
 ! D85   D(4,9,12,25)           50.2314         estimate D2E/DX2                !
 ! D86   D(4,9,12,26)          169.1897         estimate D2E/DX2                !
 ! D87   D(4,9,12,27)          -70.7135         estimate D2E/DX2                !
 ! D88   D(8,9,12,25)          172.2376         estimate D2E/DX2                !
 ! D89   D(8,9,12,26)          -68.8042         estimate D2E/DX2                !
 ! D90   D(8,9,12,27)           51.2926         estimate D2E/DX2                !
 ! D91   D(10,9,12,25)         -66.5536         estimate D2E/DX2                !
 ! D92   D(10,9,12,26)          52.4047         estimate D2E/DX2                !
 ! D93   D(10,9,12,27)         172.5015         estimate D2E/DX2                !
 ! D94   D(40,31,36,32)         -0.7981         estimate D2E/DX2                !
 ! D95   D(40,31,36,34)        176.0937         estimate D2E/DX2                !
 ! D96   D(38,33,34,35)         45.0513         estimate D2E/DX2                !
 ! D97   D(38,33,34,36)        165.8803         estimate D2E/DX2                !
 ! D98   D(38,33,34,37)        -76.6432         estimate D2E/DX2                !
 ! D99   D(39,33,34,35)        -74.4947         estimate D2E/DX2                !
 ! D100  D(39,33,34,36)         46.3343         estimate D2E/DX2                !
 ! D101  D(39,33,34,37)        163.8109         estimate D2E/DX2                !
 ! D102  D(33,34,35,41)         58.8601         estimate D2E/DX2                !
 ! D103  D(33,34,35,42)        179.6399         estimate D2E/DX2                !
 ! D104  D(33,34,35,43)        -60.4953         estimate D2E/DX2                !
 ! D105  D(36,34,35,41)        -62.1503         estimate D2E/DX2                !
 ! D106  D(36,34,35,42)         58.6295         estimate D2E/DX2                !
 ! D107  D(36,34,35,43)        178.4943         estimate D2E/DX2                !
 ! D108  D(37,34,35,41)       -178.9701         estimate D2E/DX2                !
 ! D109  D(37,34,35,42)        -58.1904         estimate D2E/DX2                !
 ! D110  D(37,34,35,43)         61.6745         estimate D2E/DX2                !
 ! D111  D(33,34,36,31)        157.8939         estimate D2E/DX2                !
 ! D112  D(33,34,36,32)        -25.3141         estimate D2E/DX2                !
 ! D113  D(35,34,36,31)        -77.0805         estimate D2E/DX2                !
 ! D114  D(35,34,36,32)         99.7116         estimate D2E/DX2                !
 ! D115  D(37,34,36,31)         39.7984         estimate D2E/DX2                !
 ! D116  D(37,34,36,32)       -143.4095         estimate D2E/DX2                !
 --------------------------------------------------------------------------------
 Trust Radius=3.00D-01 FncErr=1.00D-07 GrdErr=1.00D-06 EigMax=2.50D+02 EigMin=1.00D-04
 Number of steps in this run=    250 maximum allowed number of steps=    258.
 GradGradGradGradGradGradGradGradGradGradGradGradGradGradGradGradGradGrad

                          Input orientation:                          
 ---------------------------------------------------------------------
 Center     Atomic      Atomic             Coordinates (Angstroms)
 Number     Number       Type             X           Y           Z
 ---------------------------------------------------------------------
      1          8           0       -4.840226   -1.159527   -0.780575
      2          1           0       -5.022342   -2.059911   -0.500417
      3          6           0       -1.151804   -1.119841    0.141236
      4          7           0       -1.008489    0.353820   -0.050869
      5          8           0        0.137013    0.840710    0.200738
      6          6           0       -2.469277   -1.591509   -0.482026
      7          6           0       -3.663276   -0.718879   -0.124694
      8          6           0       -3.399152    0.690319   -0.617066
      9          6           0       -2.143493    1.323839   -0.013529
     10          6           0       -1.731721    2.533759   -0.853137
     11          6           0        0.023420   -1.796516   -0.566659
     12          6           0       -2.370937    1.769619    1.438379
     13          6           0       -1.078970   -1.443551    1.640469
     14          1           0       -2.640350   -2.626387   -0.165548
     15          1           0       -2.381100   -1.594925   -1.573736
     16          1           0       -4.258713    1.327781   -0.394442
     17          1           0       -3.303226    0.640920   -1.706806
     18          1           0       -2.574740    3.224806   -0.921653
     19          1           0       -1.452297    2.218805   -1.860224
     20          1           0       -0.884233    3.046522   -0.401076
     21          1           0        0.097348   -1.445648   -1.598253
     22          1           0       -0.145772   -2.876065   -0.577115
     23          1           0        0.958301   -1.594788   -0.042530
     24          1           0       -3.822255   -0.717096    0.962036
     25          1           0       -1.420474    2.085722    1.871340
     26          1           0       -3.062332    2.615111    1.455254
     27          1           0       -2.792369    0.976873    2.057399
     28          1           0       -1.064767   -2.527765    1.774275
     29          1           0       -0.152185   -1.040359    2.051486
     30          1           0       -1.923304   -1.040713    2.200945
     31          8           0        4.183344    4.321423    0.625705
     32          8           0        5.352422    2.809634   -0.531417
     33          7           0        3.075713    1.877586   -1.734715
     34          6           0        2.946449    2.644362   -0.506626
     35          6           0        2.479062    1.836186    0.715164
     36          6           0        4.292561    3.248205   -0.179680
     37          1           0        2.237631    3.460776   -0.667774
     38          1           0        2.255901    1.288245   -1.831161
     39          1           0        3.908861    1.299698   -1.684091
     40          1           0        5.083146    4.605471    0.834281
     41          1           0        3.180399    1.021108    0.912699
     42          1           0        2.408624    2.466910    1.603758
     43          1           0        1.495253    1.418023    0.499072
 ---------------------------------------------------------------------
                    Distance matrix (angstroms):
                    1          2          3          4          5
     1  O    0.000000
     2  H    0.960389   0.000000
     3  C    3.802074   4.034416   0.000000
     4  N    4.183886   4.705232   1.493024   0.000000
     5  O    5.453149   5.960215   2.346987   1.269859   0.000000
     6  C    2.428403   2.595743   1.531882   2.470648   3.629684
     7  C    1.417590   1.945918   2.557143   2.864267   4.120731
     8  C    2.350608   3.195640   2.983668   2.479734   3.632614
     9  C    3.745375   4.469295   2.641774   1.493508   2.340947
    10  C    4.827880   5.661661   3.830649   2.432865   2.732990
    11  C    4.909844   5.053066   1.529757   2.440250   2.748957
    12  C    4.427306   5.045213   3.393795   2.465484   2.946937
    13  C    4.482094   4.529180   1.535511   2.469035   2.961298
    14  H    2.714662   2.471218   2.139992   3.399670   4.457429
    15  H    2.620301   2.888665   2.162869   2.828567   3.927081
    16  H    2.583400   3.474308   3.991327   3.410366   4.462498
    17  H    2.542023   3.421290   3.338286   2.844358   3.938767
    18  H    4.937075   5.839215   4.693659   3.384371   3.781174
    19  H    4.904776   5.736001   3.904189   2.636077   2.944931
    20  H    5.786601   6.573391   4.210021   2.718222   2.504143
    21  H    5.012993   5.271981   2.166184   2.618274   2.909532
    22  H    5.002579   4.944990   2.147662   3.384283   3.807813
    23  H    5.861491   6.016152   2.170688   2.768647   2.581733
    24  H    2.066084   2.319942   2.822627   3.176494   4.322284
    25  H    5.409159   5.982053   3.652544   2.619943   2.601294
    26  H    4.733680   5.433426   4.396206   3.405894   3.867573
    27  H    4.100246   4.553818   3.280144   2.831116   3.470880
    28  H    4.759561   4.588628   2.157925   3.411429   3.907290
    29  H    5.478366   5.591970   2.157455   2.663999   2.654680
    30  H    4.172770   4.235582   2.200880   2.802191   3.433000
    31  O   10.650974  11.257630   7.635828   6.569228   5.354321
    32  O   10.941042  11.460766   7.628774   6.835433   5.622562
    33  N    8.532088   9.088777   5.511412   4.673105   3.668385
    34  C    8.670462   9.253748   5.602198   4.593019   3.412690
    35  C    8.048820   8.539805   4.717063   3.866165   2.596305
    36  C   10.158591  10.725968   6.987412   6.041125   4.817606
    37  H    8.453165   9.122127   5.755417   4.535532   3.468668
    38  H    7.579600   8.121197   4.615374   3.833905   2.969611
    39  H    9.132943   9.615324   5.898840   5.267108   4.241472
    40  H   11.589490  12.179065   8.493181   7.481180   6.248123
    41  H    8.482498   8.875502   4.893547   4.349773   3.130756
    42  H    8.448782   8.952034   5.261217   4.345066   3.126213
    43  H    6.958416   7.454800   3.684523   2.775552   1.505692
                    6          7          8          9         10
     6  C    0.000000
     7  C    1.521448   0.000000
     8  C    2.467720   1.515926   0.000000
     9  C    2.970670   2.548489   1.530452   0.000000
    10  C    4.207083   3.852426   2.496863   1.529184   0.000000
    11  C    2.502544   3.866311   4.230944   3.839021   4.681225
    12  C    3.872313   3.210290   2.539088   1.535737   2.498710
    13  C    2.541620   3.212411   3.877255   3.395197   4.739531
    14  H    1.095626   2.164863   3.432228   3.984252   5.284458
    15  H    1.095271   2.123948   2.678430   3.318115   4.241107
    16  H    3.425202   2.148517   1.093053   2.149248   2.837335
    17  H    2.679421   2.117019   1.095069   2.162995   2.604077
    18  H    4.837487   4.168058   2.682546   2.150428   1.092209
    19  H    4.177580   4.065769   2.769830   2.165410   1.091558
    20  H    4.902066   4.688039   3.452993   2.168770   1.088816
    21  H    2.802642   4.103884   4.213146   3.899074   4.442564
    22  H    2.656652   4.151020   4.827543   4.684839   5.644255
    23  H    3.455642   4.704566   4.953706   4.259149   4.993816
    24  H    2.163438   1.098298   2.157173   2.816981   4.270040
    25  H    4.490028   4.108540   3.471956   2.157766   2.778558
    26  H    4.669092   3.738029   2.848295   2.160780   2.665673
    27  H    3.626245   2.897513   2.757365   2.197764   3.467000
    28  H    2.817821   3.691937   4.639389   4.381181   5.741702
    29  H    3.477264   4.143292   4.545240   3.717395   4.868890
    30  H    2.792812   2.922272   3.621572   3.247073   4.705419
    31  O    8.969236   9.356131   8.498449   7.030149   6.353795
    32  O    8.975048   9.690131   9.004937   7.659278   7.096809
    33  N    6.659637   7.399174   6.677022   5.523516   4.931447
    34  C    6.875557   7.426016   6.640567   5.281518   4.692289
    35  C    6.137460   6.705374   6.135246   4.707601   4.547183
    36  C    8.320859   8.890226   8.117668   6.719642   6.103765
    37  H    6.907610   7.251563   6.281029   4.918210   4.080377
    38  H    5.695652   6.478984   5.814737   4.760223   4.290567
    39  H    7.105257   7.990221   7.410596   6.278722   5.833486
    40  H    9.857704  10.284369   9.454322   7.981993   7.319958
    41  H    6.378861   7.137201   6.763143   5.412335   5.434631
    42  H    6.679459   7.071405   6.466730   4.964272   4.814899
    43  H    5.073198   5.618350   5.072526   3.675881   3.672424
                   11         12         13         14         15
    11  C    0.000000
    12  C    4.740300   0.000000
    13  C    2.492240   3.469075   0.000000
    14  H    2.818731   4.687220   2.664340   0.000000
    15  H    2.614682   4.515872   3.471249   1.764686   0.000000
    16  H    5.303542   2.667986   4.683152   4.278661   3.668566
    17  H    4.278738   3.469195   4.527315   3.672897   2.422195
    18  H    5.664815   2.780082   5.531307   5.900208   4.867496
    19  H    4.469212   3.453469   5.080067   5.268708   3.935643
    20  H    4.930139   2.687818   4.936252   5.943174   5.015852
    21  H    1.092135   5.064732   3.445729   3.307836   2.483060
    22  H    1.092777   5.531361   2.800113   2.540600   2.762474
    23  H    1.090600   4.959451   2.646853   3.745613   3.673716
    24  H    4.276830   2.918386   2.917811   2.512715   3.045924
    25  H    4.806292   1.091218   3.553265   5.276455   5.132106
    26  H    5.750865   1.092323   4.521147   5.502578   5.230990
    27  H    4.744053   1.090521   2.994665   4.236518   4.468605
    28  H    2.683067   4.504044   1.092532   2.501020   3.716463
    29  H    2.730805   3.632456   1.091068   3.690757   4.291601
    30  H    3.467074   2.946158   1.090556   2.937483   3.842518
    31  O    7.493722   7.080307   7.871253   9.770412   9.106736
    32  O    7.043871   8.038159   8.010585   9.673086   8.960688
    33  N    4.917303   6.304457   6.299461   7.444557   6.470012
    34  C    5.316869   5.729119   6.125769   7.688267   6.891520
    35  C    4.568345   4.904076   4.926709   6.848255   6.374383
    36  C    6.620010   7.014737   7.360629   9.087150   8.362838
    37  H    5.705443   5.341797   6.354546   7.816680   6.907500
    38  H    4.012317   5.685881   5.535006   6.486284   5.466325
    39  H    5.092332   7.028976   6.592160   7.785389   6.924928
    40  H    8.279427   7.998147   8.672502  10.627880   9.997921
    41  H    4.482636   5.626184   4.974577   6.953270   6.629952
    42  H    5.345719   4.832987   5.239882   7.386762   7.038212
    43  H    3.692606   3.994163   4.014725   5.822558   5.329212
                   16         17         18         19         20
    16  H    0.000000
    17  H    1.762678   0.000000
    18  H    2.590834   2.797074   0.000000
    19  H    3.289135   2.437047   1.775622   0.000000
    20  H    3.786982   3.652859   1.777808   1.771137   0.000000
    21  H    5.302484   3.991172   5.423189   3.987260   4.751455
    22  H    5.884044   4.859517   6.575653   5.413971   5.971043
    23  H    5.990199   5.092035   6.040176   4.863999   5.006520
    24  H    2.492398   3.039131   4.543475   4.711833   4.965367
    25  H    3.709965   4.293639   3.229652   3.734072   2.524790
    26  H    2.551455   3.735516   2.501831   3.706975   2.894165
    27  H    2.878337   3.813539   3.738357   4.322726   3.737450
    28  H    5.456176   5.212407   6.529940   5.990800   5.986436
    29  H    5.334250   5.184642   5.735849   5.254895   4.822194
    30  H    4.218997   4.472426   5.326316   5.228709   4.955368
    31  O    9.015039   8.662300   7.019159   6.508556   5.325410
    32  O    9.725666   9.000284   7.947613   6.958377   6.242513
    33  N    7.476124   6.497768   5.865466   4.542583   4.338915
    34  C    7.325321   6.671780   5.567107   4.621935   3.853180
    35  C    6.847431   6.381963   5.490751   4.715358   3.744684
    36  C    8.766895   8.174719   6.907307   6.073490   5.185450
    37  H    6.843016   6.303354   4.824837   4.071855   3.160502
    38  H    6.671275   5.598070   5.283234   3.823286   3.872612
    39  H    8.268812   7.242148   6.806206   5.442223   5.260349
    40  H    9.976139   9.618005   7.977015   7.461136   6.290155
    41  H    7.559303   7.003124   6.429834   5.530412   4.727530
    42  H    7.052928   6.849766   5.637909   5.193018   3.898489
    43  H    5.823627   5.338088   4.674159   3.859479   3.020634
                   21         22         23         24         25
    21  H    0.000000
    22  H    1.774239   0.000000
    23  H    1.784309   1.773818   0.000000
    24  H    4.738054   4.532842   4.963186   0.000000
    25  H    5.178072   5.677951   4.782010   3.801470   0.000000
    26  H    5.983080   6.541396   6.010998   3.453165   1.774564
    27  H    5.251939   5.365657   5.009059   2.264954   1.773770
    28  H    3.727658   2.548509   2.874723   3.397351   4.628197
    29  H    3.680641   3.206150   2.434230   3.841980   3.378371
    30  H    4.322142   3.774355   3.693755   2.290336   3.183720
    31  O    7.409485   8.484801   6.771188   9.465168   6.160580
    32  O    6.845537   7.909450   6.240693   9.941978   7.222840
    33  N    4.464657   5.857918   4.405032   7.847726   5.767378
    34  C    5.102666   6.327868   4.705158   7.698813   5.003680
    35  C    4.668501   5.546625   3.828629   6.803440   4.074971
    36  C    6.453249   7.573865   5.881384   9.103701   6.180358
    37  H    5.433195   6.770848   5.252271   7.538774   4.660430
    38  H    3.491098   4.968112   3.632471   6.983360   5.278278
    39  H    4.698077   5.924732   4.447311   8.416626   6.454512
    40  H    8.209230   9.236179   7.498424  10.375559   7.051362
    41  H    4.679206   5.335815   3.562737   7.215328   4.818758
    42  H    5.559045   6.310985   4.616394   7.026632   3.857317
    43  H    3.814908   4.721264   3.107842   5.748822   3.290958
                   26         27         28         29         30
    26  H    0.000000
    27  H    1.766149   0.000000
    28  H    5.526411   3.917557   0.000000
    29  H    4.710298   3.322624   1.766926   0.000000
    30  H    3.901088   2.201484   1.769310   1.777414   0.000000
    31  O    7.489958   7.867422   8.704783   7.041191   8.277985
    32  O    8.648282   8.740629   8.659351   7.196842   8.673359
    33  N    6.956683   7.044558   6.990258   5.767933   6.999719
    34  C    6.321018   6.502982   6.931324   5.451847   6.680210
    35  C    5.644600   5.507086   5.720534   4.121132   5.464881
    36  C    7.560970   7.769151   8.116695   6.567012   7.918281
    37  H    5.771656   6.236766   7.261685   5.776315   6.768038
    38  H    6.390986   6.379881   6.211919   5.127984   6.256811
    39  H    7.757791   7.681760   7.165664   5.993538   7.388178
    40  H    8.408089   8.757082   9.463799   7.795235   9.101512
    41  H    6.465826   6.081633   5.599844   4.080760   5.653183
    42  H    5.474977   5.429210   6.086074   4.365677   5.605859
    43  H    4.808210   4.583306   4.873303   3.341808   4.541837
                   31         32         33         34         35
    31  O    0.000000
    32  O    2.234095   0.000000
    33  N    3.573621   2.738621   0.000000
    34  C    2.371628   2.411771   1.453567   0.000000
    35  C    3.014794   3.279903   2.521827   1.537651   0.000000
    36  C    1.346243   1.199737   2.403633   1.511138   2.466439
    37  H    2.489900   3.185043   2.085003   1.093125   2.147114
    38  H    4.353321   3.686788   1.014257   2.017499   2.614156
    39  H    3.813308   2.385882   1.015210   2.029970   2.844041
    40  H    0.966349   2.272151   4.250987   3.195225   3.803207
    41  H    3.461263   3.162590   2.784477   2.168910   1.093274
    42  H    2.746896   3.652722   3.455099   2.185055   1.091958
    43  H    3.958737   4.228031   2.774682   2.149722   1.090613
                   36         37         38         39         40
    36  C    0.000000
    37  H    2.122772   0.000000
    38  H    3.273655   2.464487   0.000000
    39  H    2.491416   2.914818   1.659530   0.000000
    40  H    1.869576   3.415179   5.109001   4.318481   0.000000
    41  H    2.718484   3.055927   2.907719   2.711380   4.058849
    42  H    2.709297   2.485330   3.634728   3.797768   3.509788
    43  H    3.411042   2.466880   2.454672   3.256640   4.810943
                   41         42         43
    41  H    0.000000
    42  H    1.778636   0.000000
    43  H    1.779985   1.776159   0.000000
 Stoichiometry    C12H25N2O4(2)
 Framework group  C1[X(C12H25N2O4)]
 Deg. of freedom   123
 Full point group                 C1      NOp   1
 Largest Abelian subgroup         C1      NOp   1
 Largest concise Abelian subgroup C1      NOp   1
                         Standard orientation:                         
 ---------------------------------------------------------------------
 Center     Atomic      Atomic             Coordinates (Angstroms)
 Number     Number       Type             X           Y           Z
 ---------------------------------------------------------------------
      1          8           0        5.166530   -0.278776   -0.778165
      2          1           0        5.738964    0.428943   -0.471898
      3          6           0        1.868768    1.307331    0.253727
      4          7           0        1.072884    0.067105    0.013877
      5          8           0       -0.166119    0.138257    0.282859
      6          6           0        3.250141    1.161950   -0.392288
      7          6           0        3.924887   -0.170599   -0.102751
      8          6           0        3.047013   -1.285234   -0.636565
      9          6           0        1.647423   -1.311104   -0.017886
     10          6           0        0.724012   -2.165737   -0.886976
     11          6           0        1.118306    2.472679   -0.393520
     12          6           0        1.665099   -1.877032    1.409665
     13          6           0        1.966826    1.560577    1.765032
     14          1           0        3.873904    1.992883   -0.044629
     15          1           0        3.160829    1.254385   -1.479991
     16          1           0        3.528195   -2.251214   -0.463038
     17          1           0        2.971590   -1.148405   -1.720431
     18          1           0        1.162971   -3.158787   -1.005667
     19          1           0        0.605824   -1.713203   -1.873253
     20          1           0       -0.258610   -2.261157   -0.427768
     21          1           0        0.882288    2.240154   -1.434186
     22          1           0        1.756923    3.359140   -0.370792
     23          1           0        0.199080    2.690645    0.151387
     24          1           0        4.078037   -0.293282    0.977875
     25          1           0        0.679273   -1.749846    1.859917
     26          1           0        1.899973   -2.943254    1.375411
     27          1           0        2.406155   -1.388589    2.043301
     28          1           0        2.445572    2.527345    1.937623
     29          1           0        0.962524    1.600453    2.189550
     30          1           0        2.544219    0.795245    2.284837
     31          8           0       -5.343578   -1.158902    0.707184
     32          8           0       -5.716218    0.768496   -0.359331
     33          7           0       -3.277643    0.627264   -1.597657
     34          6           0       -3.495094   -0.170343   -0.402084
     35          6           0       -2.699337    0.283731    0.832808
     36          6           0       -4.965050   -0.116395   -0.055879
     37          1           0       -3.233529   -1.210410   -0.613663
     38          1           0       -2.281132    0.787259   -1.698076
     39          1           0       -3.759130    1.515808   -1.501156
     40          1           0       -6.272237   -1.015790    0.932890
     41          1           0       -2.954427    1.317580    1.080460
     42          1           0       -2.911578   -0.350641    1.695884
     43          1           0       -1.635225    0.222622    0.601795
 ---------------------------------------------------------------------
 Rotational constants (GHZ):           0.8447779           0.1624351           0.1522514
 Standard basis: 6-311G(d,p) (5D, 7F)
 There are   492 symmetry adapted cartesian basis functions of A   symmetry.
 There are   474 symmetry adapted basis functions of A   symmetry.
   474 basis functions,   776 primitive gaussians,   492 cartesian basis functions
    72 alpha electrons       71 beta electrons
       nuclear repulsion energy      1469.3502830923 Hartrees.
 NAtoms=   43 NActive=   43 NUniq=   43 SFac= 1.00D+00 NAtFMM=   60 NAOKFM=F Big=F
 Integral buffers will be    131072 words long.
 Raffenetti 2 integral format.
 Two-electron integral symmetry is turned on.
 ------------------------------------------------------------------------------
 Polarizable Continuum Model (PCM)
 =================================
 Model                : PCM.
 Atomic radii         : UFF (Universal Force Field).
 Polarization charges : Total charges.
 Charge compensation  : None.
 Solution method      : On-the-fly selection.
 Cavity type          : Scaled VdW (van der Waals Surface) (Alpha=1.100).
 Cavity algorithm     : GePol (No added spheres)
                        Default sphere list used, NSphG=   43.
                        Lebedev-Laikov grids with approx.  5.0 points / Ang**2.
                        Smoothing algorithm: York/Karplus (Gamma=1.0000).
                        Polarization charges: spherical gaussians, with
                                              point-specific exponents (IZeta= 3).
                        Self-potential: point-specific (ISelfS= 7).
                        Self-field    : sphere-specific E.n sum rule (ISelfD= 2).
 1st derivatives      : Analytical E(r).r(x)/FMM algorithm (CHGder, D1EAlg=3).
                        Cavity 1st derivative terms included.
 Solvent              : Water, Eps=  78.355300 Eps(inf)=   1.777849
 ------------------------------------------------------------------------------
 One-electron integrals computed using PRISM.
 NBasis=   474 RedAO= T EigKep=  9.02D-04  NBF=   474
 NBsUse=   474 1.00D-06 EigRej= -1.00D+00 NBFU=   474
 ExpMin= 1.03D-01 ExpMax= 8.59D+03 ExpMxC= 1.30D+03 IAcc=3 IRadAn=         5 AccDes= 0.00D+00
 Harris functional with IExCor= 1009 and IRadAn=       5 diagonalized for initial guess.
 HarFok:  IExCor= 1009 AccDes= 0.00D+00 IRadAn=         5 IDoV= 1 UseB2=F ITyADJ=14
 ICtDFT=  3500011 ScaDFX=  1.000000  1.000000  1.000000  1.000000
 FoFCou: FMM=F IPFlag=           0 FMFlag=      100000 FMFlg1=           0
         NFxFlg=           0 DoJE=T BraDBF=F KetDBF=T FulRan=T
         wScrn=  0.000000 ICntrl=       500 IOpCl=  0 I1Cent=   200000004 NGrid=           0
         NMat0=    1 NMatS0=      1 NMatT0=    0 NMatD0=    1 NMtDS0=    0 NMtDT0=    0
 Petite list used in FoFCou.
 Initial guess <Sx>= 0.0000 <Sy>= 0.0000 <Sz>= 0.5000 <S**2>= 0.7500 S= 0.5000
 Requested convergence on RMS density matrix=1.00D-08 within 128 cycles.
 Requested convergence on MAX density matrix=1.00D-06.
 Requested convergence on             energy=1.00D-06.
 No special actions if energy rises.
 Inv3:  Mode=1 IEnd=    23503203.
 Iteration    1 A*A^-1 deviation from unit magnitude is 9.55D-15 for    511.
 Iteration    1 A*A^-1 deviation from orthogonality  is 4.18D-15 for   2285    175.
 Iteration    1 A^-1*A deviation from unit magnitude is 9.55D-15 for    511.
 Iteration    1 A^-1*A deviation from orthogonality  is 3.34D-15 for   2181    518.
 Error on total polarization charges =  0.01190
 SCF Done:  E(UM062X) =  -882.547867144     A.U. after   15 cycles
            NFock= 15  Conv=0.34D-08     -V/T= 2.0033
 <Sx>= 0.0000 <Sy>= 0.0000 <Sz>= 0.5000 <S**2>= 0.7547 S= 0.5023
 <L.S>= 0.000000000000E+00
 Annihilation of the first spin contaminant:
 S**2 before annihilation     0.7547,   after     0.7500

 **********************************************************************

            Population analysis using the SCF density.

 **********************************************************************

 Orbital symmetries:
 Alpha Orbitals:
       Occupied  (A) (A) (A) (A) (A) (A) (A) (A) (A) (A) (A) (A)
                 (A) (A) (A) (A) (A) (A) (A) (A) (A) (A) (A) (A)
                 (A) (A) (A) (A) (A) (A) (A) (A) (A) (A) (A) (A)
                 (A) (A) (A) (A) (A) (A) (A) (A) (A) (A) (A) (A)
                 (A) (A) (A) (A) (A) (A) (A) (A) (A) (A) (A) (A)
                 (A) (A) (A) (A) (A) (A) (A) (A) (A) (A) (A) (A)
       Virtual   (A) (A) (A) (A) (A) (A) (A) (A) (A) (A) (A) (A)
                 (A) (A) (A) (A) (A) (A) (A) (A) (A) (A) (A) (A)
                 (A) (A) (A) (A) (A) (A) (A) (A) (A) (A) (A) (A)
                 (A) (A) (A) (A) (A) (A) (A) (A) (A) (A) (A) (A)
                 (A) (A) (A) (A) (A) (A) (A) (A) (A) (A) (A) (A)
                 (A) (A) (A) (A) (A) (A) (A) (A) (A) (A) (A) (A)
                 (A) (A) (A) (A) (A) (A) (A) (A) (A) (A) (A) (A)
                 (A) (A) (A) (A) (A) (A) (A) (A) (A) (A) (A) (A)
                 (A) (A) (A) (A) (A) (A) (A) (A) (A) (A) (A) (A)
                 (A) (A) (A) (A) (A) (A) (A) (A) (A) (A) (A) (A)
                 (A) (A) (A) (A) (A) (A) (A) (A) (A) (A) (A) (A)
                 (A) (A) (A) (A) (A) (A) (A) (A) (A) (A) (A) (A)
                 (A) (A) (A) (A) (A) (A) (A) (A) (A) (A) (A) (A)
                 (A) (A) (A) (A) (A) (A) (A) (A) (A) (A) (A) (A)
                 (A) (A) (A) (A) (A) (A) (A) (A) (A) (A) (A) (A)
                 (A) (A) (A) (A) (A) (A) (A) (A) (A) (A) (A) (A)
                 (A) (A) (A) (A) (A) (A) (A) (A) (A) (A) (A) (A)
                 (A) (A) (A) (A) (A) (A) (A) (A) (A) (A) (A) (A)
                 (A) (A) (A) (A) (A) (A) (A) (A) (A) (A) (A) (A)
                 (A) (A) (A) (A) (A) (A) (A) (A) (A) (A) (A) (A)
                 (A) (A) (A) (A) (A) (A) (A) (A) (A) (A) (A) (A)
                 (A) (A) (A) (A) (A) (A) (A) (A) (A) (A) (A) (A)
                 (A) (A) (A) (A) (A) (A) (A) (A) (A) (A) (A) (A)
                 (A) (A) (A) (A) (A) (A) (A) (A) (A) (A) (A) (A)
                 (A) (A) (A) (A) (A) (A) (A) (A) (A) (A) (A) (A)
                 (A) (A) (A) (A) (A) (A) (A) (A) (A) (A) (A) (A)
                 (A) (A) (A) (A) (A) (A) (A) (A) (A) (A) (A) (A)
                 (A) (A) (A) (A) (A) (A) (A) (A) (A) (A) (A) (A)
                 (A) (A) (A) (A) (A) (A) (A) (A) (A) (A) (A) (A)
                 (A) (A) (A) (A) (A) (A) (A) (A) (A) (A) (A) (A)
                 (A) (A) (A) (A) (A) (A) (A) (A) (A) (A) (A) (A)
                 (A) (A) (A) (A) (A) (A) (A) (A) (A) (A) (A) (A)
                 (A) (A) (A) (A) (A) (A) (A) (A) (A) (A) (A) (A)
                 (A) (A) (A) (A) (A) (A)
 Beta  Orbitals:
       Occupied  (A) (A) (A) (A) (A) (A) (A) (A) (A) (A) (A) (A)
                 (A) (A) (A) (A) (A) (A) (A) (A) (A) (A) (A) (A)
                 (A) (A) (A) (A) (A) (A) (A) (A) (A) (A) (A) (A)
                 (A) (A) (A) (A) (A) (A) (A) (A) (A) (A) (A) (A)
                 (A) (A) (A) (A) (A) (A) (A) (A) (A) (A) (A) (A)
                 (A) (A) (A) (A) (A) (A) (A) (A) (A) (A) (A)
       Virtual   (A) (A) (A) (A) (A) (A) (A) (A) (A) (A) (A) (A)
                 (A) (A) (A) (A) (A) (A) (A) (A) (A) (A) (A) (A)
                 (A) (A) (A) (A) (A) (A) (A) (A) (A) (A) (A) (A)
                 (A) (A) (A) (A) (A) (A) (A) (A) (A) (A) (A) (A)
                 (A) (A) (A) (A) (A) (A) (A) (A) (A) (A) (A) (A)
                 (A) (A) (A) (A) (A) (A) (A) (A) (A) (A) (A) (A)
                 (A) (A) (A) (A) (A) (A) (A) (A) (A) (A) (A) (A)
                 (A) (A) (A) (A) (A) (A) (A) (A) (A) (A) (A) (A)
                 (A) (A) (A) (A) (A) (A) (A) (A) (A) (A) (A) (A)
                 (A) (A) (A) (A) (A) (A) (A) (A) (A) (A) (A) (A)
                 (A) (A) (A) (A) (A) (A) (A) (A) (A) (A) (A) (A)
                 (A) (A) (A) (A) (A) (A) (A) (A) (A) (A) (A) (A)
                 (A) (A) (A) (A) (A) (A) (A) (A) (A) (A) (A) (A)
                 (A) (A) (A) (A) (A) (A) (A) (A) (A) (A) (A) (A)
                 (A) (A) (A) (A) (A) (A) (A) (A) (A) (A) (A) (A)
                 (A) (A) (A) (A) (A) (A) (A) (A) (A) (A) (A) (A)
                 (A) (A) (A) (A) (A) (A) (A) (A) (A) (A) (A) (A)
                 (A) (A) (A) (A) (A) (A) (A) (A) (A) (A) (A) (A)
                 (A) (A) (A) (A) (A) (A) (A) (A) (A) (A) (A) (A)
                 (A) (A) (A) (A) (A) (A) (A) (A) (A) (A) (A) (A)
                 (A) (A) (A) (A) (A) (A) (A) (A) (A) (A) (A) (A)
                 (A) (A) (A) (A) (A) (A) (A) (A) (A) (A) (A) (A)
                 (A) (A) (A) (A) (A) (A) (A) (A) (A) (A) (A) (A)
                 (A) (A) (A) (A) (A) (A) (A) (A) (A) (A) (A) (A)
                 (A) (A) (A) (A) (A) (A) (A) (A) (A) (A) (A) (A)
                 (A) (A) (A) (A) (A) (A) (A) (A) (A) (A) (A) (A)
                 (A) (A) (A) (A) (A) (A) (A) (A) (A) (A) (A) (A)
                 (A) (A) (A) (A) (A) (A) (A) (A) (A) (A) (A) (A)
                 (A) (A) (A) (A) (A) (A) (A) (A) (A) (A) (A) (A)
                 (A) (A) (A) (A) (A) (A) (A) (A) (A) (A) (A) (A)
                 (A) (A) (A) (A) (A) (A) (A) (A) (A) (A) (A) (A)
                 (A) (A) (A) (A) (A) (A) (A) (A) (A) (A) (A) (A)
                 (A) (A) (A) (A) (A) (A) (A) (A) (A) (A) (A) (A)
                 (A) (A) (A) (A) (A) (A) (A)
 The electronic state is 2-A.
 Alpha  occ. eigenvalues --  -19.66586 -19.63002 -19.61915 -19.61734 -14.84660
 Alpha  occ. eigenvalues --  -14.71887 -10.67569 -10.59575 -10.59505 -10.59314
 Alpha  occ. eigenvalues --  -10.57409 -10.54007 -10.53928 -10.53188 -10.53136
 Alpha  occ. eigenvalues --  -10.52917 -10.52794 -10.50238  -1.24336  -1.24212
 Alpha  occ. eigenvalues --   -1.15172  -1.14775  -0.99663  -0.98776  -0.93182
 Alpha  occ. eigenvalues --   -0.86686  -0.84044  -0.82687  -0.79449  -0.78501
 Alpha  occ. eigenvalues --   -0.78321  -0.75208  -0.69516  -0.69138  -0.66610
 Alpha  occ. eigenvalues --   -0.62826  -0.60824  -0.60047  -0.58740  -0.58481
 Alpha  occ. eigenvalues --   -0.57223  -0.56304  -0.54266  -0.53061  -0.52053
 Alpha  occ. eigenvalues --   -0.51784  -0.50465  -0.50170  -0.49993  -0.48673
 Alpha  occ. eigenvalues --   -0.47832  -0.47114  -0.46575  -0.46200  -0.45940
 Alpha  occ. eigenvalues --   -0.44750  -0.44309  -0.43692  -0.43271  -0.41752
 Alpha  occ. eigenvalues --   -0.41721  -0.41581  -0.40746  -0.40095  -0.39967
 Alpha  occ. eigenvalues --   -0.39472  -0.38122  -0.35157  -0.34965  -0.34447
 Alpha  occ. eigenvalues --   -0.30776  -0.27514
 Alpha virt. eigenvalues --    0.05484   0.06006   0.07561   0.08326   0.08783
 Alpha virt. eigenvalues --    0.09166   0.09657   0.10653   0.10761   0.11013
 Alpha virt. eigenvalues --    0.13652   0.14025   0.14429   0.15154   0.15407
 Alpha virt. eigenvalues --    0.16227   0.16664   0.17302   0.17414   0.18119
 Alpha virt. eigenvalues --    0.18515   0.19178   0.19836   0.20294   0.20405
 Alpha virt. eigenvalues --    0.21316   0.21768   0.22798   0.22916   0.23895
 Alpha virt. eigenvalues --    0.24327   0.25555   0.25894   0.27844   0.28567
 Alpha virt. eigenvalues --    0.28843   0.29451   0.29889   0.30865   0.31906
 Alpha virt. eigenvalues --    0.32085   0.33251   0.33839   0.34119   0.35268
 Alpha virt. eigenvalues --    0.36690   0.36900   0.38542   0.38875   0.40016
 Alpha virt. eigenvalues --    0.41445   0.42323   0.42820   0.44049   0.44534
 Alpha virt. eigenvalues --    0.45119   0.45862   0.46138   0.48871   0.49105
 Alpha virt. eigenvalues --    0.49369   0.50802   0.51243   0.51742   0.52055
 Alpha virt. eigenvalues --    0.52791   0.53508   0.54320   0.54635   0.57312
 Alpha virt. eigenvalues --    0.58081   0.58310   0.59726   0.59812   0.60654
 Alpha virt. eigenvalues --    0.61163   0.61868   0.62209   0.62665   0.63734
 Alpha virt. eigenvalues --    0.64154   0.64472   0.64640   0.65009   0.65317
 Alpha virt. eigenvalues --    0.65583   0.66059   0.66718   0.67007   0.67514
 Alpha virt. eigenvalues --    0.68177   0.68453   0.68593   0.69060   0.69457
 Alpha virt. eigenvalues --    0.69738   0.70542   0.71563   0.72412   0.73499
 Alpha virt. eigenvalues --    0.74167   0.74198   0.74513   0.75405   0.76162
 Alpha virt. eigenvalues --    0.78362   0.79098   0.81004   0.82050   0.84822
 Alpha virt. eigenvalues --    0.87151   0.87917   0.88388   0.88882   0.90388
 Alpha virt. eigenvalues --    0.92837   0.95354   0.95554   0.96000   0.96162
 Alpha virt. eigenvalues --    0.98108   0.99334   1.00897   1.01449   1.03372
 Alpha virt. eigenvalues --    1.03672   1.05083   1.07829   1.09481   1.10303
 Alpha virt. eigenvalues --    1.10645   1.11706   1.12868   1.15061   1.16646
 Alpha virt. eigenvalues --    1.19291   1.20782   1.23949   1.24676   1.25580
 Alpha virt. eigenvalues --    1.25963   1.29993   1.31509   1.33002   1.33961
 Alpha virt. eigenvalues --    1.34200   1.35913   1.36787   1.37906   1.39571
 Alpha virt. eigenvalues --    1.40990   1.42773   1.44705   1.45928   1.46986
 Alpha virt. eigenvalues --    1.47559   1.47713   1.47951   1.48245   1.48700
 Alpha virt. eigenvalues --    1.49364   1.49948   1.50818   1.51206   1.52044
 Alpha virt. eigenvalues --    1.52341   1.53716   1.54805   1.54985   1.55322
 Alpha virt. eigenvalues --    1.56088   1.56470   1.57004   1.57753   1.59251
 Alpha virt. eigenvalues --    1.59713   1.60042   1.60407   1.61258   1.62597
 Alpha virt. eigenvalues --    1.63119   1.64325   1.65409   1.65835   1.66478
 Alpha virt. eigenvalues --    1.66951   1.67830   1.68552   1.69400   1.70452
 Alpha virt. eigenvalues --    1.70558   1.71452   1.71891   1.72176   1.73915
 Alpha virt. eigenvalues --    1.74948   1.75666   1.76153   1.76317   1.77376
 Alpha virt. eigenvalues --    1.78306   1.79301   1.79576   1.80167   1.80871
 Alpha virt. eigenvalues --    1.83013   1.84250   1.85570   1.85884   1.86390
 Alpha virt. eigenvalues --    1.87890   1.89044   1.89444   1.90308   1.90721
 Alpha virt. eigenvalues --    1.91423   1.92550   1.93371   1.95933   1.96364
 Alpha virt. eigenvalues --    1.97617   1.97983   1.99782   2.01679   2.03475
 Alpha virt. eigenvalues --    2.04623   2.05118   2.06736   2.07468   2.08381
 Alpha virt. eigenvalues --    2.09064   2.10028   2.11423   2.13184   2.14267
 Alpha virt. eigenvalues --    2.16093   2.16668   2.18695   2.19267   2.21169
 Alpha virt. eigenvalues --    2.21708   2.23589   2.24370   2.25166   2.26078
 Alpha virt. eigenvalues --    2.27020   2.30226   2.31844   2.32882   2.34767
 Alpha virt. eigenvalues --    2.36991   2.37800   2.40949   2.41678   2.42171
 Alpha virt. eigenvalues --    2.44647   2.45525   2.46333   2.47458   2.48818
 Alpha virt. eigenvalues --    2.49101   2.49429   2.50599   2.51045   2.52066
 Alpha virt. eigenvalues --    2.52978   2.53456   2.54524   2.54931   2.56339
 Alpha virt. eigenvalues --    2.56444   2.56862   2.57929   2.58705   2.58823
 Alpha virt. eigenvalues --    2.59229   2.59615   2.59955   2.61409   2.62110
 Alpha virt. eigenvalues --    2.62144   2.65055   2.65522   2.65991   2.66630
 Alpha virt. eigenvalues --    2.68041   2.68458   2.69737   2.70638   2.71695
 Alpha virt. eigenvalues --    2.74839   2.75376   2.76953   2.78132   2.79911
 Alpha virt. eigenvalues --    2.81602   2.83057   2.84441   2.86834   2.87029
 Alpha virt. eigenvalues --    2.87835   2.89589   2.90063   2.90580   2.93839
 Alpha virt. eigenvalues --    2.94338   2.94412   2.94725   2.96216   2.98076
 Alpha virt. eigenvalues --    2.98656   3.01273   3.02456   3.05819   3.06199
 Alpha virt. eigenvalues --    3.07975   3.11053   3.11908   3.13085   3.16690
 Alpha virt. eigenvalues --    3.18211   3.21040   3.23201   3.23742   3.25655
 Alpha virt. eigenvalues --    3.26337   3.28730   3.30045   3.32498   3.33912
 Alpha virt. eigenvalues --    3.38995   3.39914   3.41484   3.42161   3.51095
 Alpha virt. eigenvalues --    3.55438   3.56946   3.60270   3.63259   3.67942
 Alpha virt. eigenvalues --    3.77767   3.78757   3.80269   3.81026   3.81385
 Alpha virt. eigenvalues --    3.82652   3.83894   3.84862   3.85628   3.86413
 Alpha virt. eigenvalues --    3.86707   3.87607   3.88900   3.90008   3.91486
 Alpha virt. eigenvalues --    3.96219   3.97368   4.01206   4.06204   4.09876
 Alpha virt. eigenvalues --    4.13282   4.20168   4.23697   4.24935   4.32861
 Alpha virt. eigenvalues --    4.36868   4.38590   4.39599   4.84585   4.88240
 Alpha virt. eigenvalues --    4.91049   4.91847   4.93705   5.02835   5.04121
 Alpha virt. eigenvalues --    5.06729   5.15980   5.21499   5.37728   5.40065
 Alpha virt. eigenvalues --    5.66519   5.75441   5.82748   6.04449  23.78143
 Alpha virt. eigenvalues --   23.84178  23.87638  23.88539  23.89272  23.94757
 Alpha virt. eigenvalues --   23.97423  24.00742  24.02873  24.03386  24.05880
 Alpha virt. eigenvalues --   24.07923  35.54656  35.68409  49.96800  50.02485
 Alpha virt. eigenvalues --   50.05063  50.10897
  Beta  occ. eigenvalues --  -19.66586 -19.62031 -19.61914 -19.61734 -14.83803
  Beta  occ. eigenvalues --  -14.71885 -10.67569 -10.59606 -10.59536 -10.59316
  Beta  occ. eigenvalues --  -10.57408 -10.54004 -10.53926 -10.53151 -10.53099
  Beta  occ. eigenvalues --  -10.52903 -10.52780 -10.50244  -1.24213  -1.21432
  Beta  occ. eigenvalues --   -1.15169  -1.14775  -0.99640  -0.97488  -0.92979
  Beta  occ. eigenvalues --   -0.85965  -0.84010  -0.81293  -0.79210  -0.78445
  Beta  occ. eigenvalues --   -0.78216  -0.75153  -0.69245  -0.68564  -0.66579
  Beta  occ. eigenvalues --   -0.62023  -0.60768  -0.59525  -0.58559  -0.58202
  Beta  occ. eigenvalues --   -0.56368  -0.54211  -0.53355  -0.52467  -0.52042
  Beta  occ. eigenvalues --   -0.51512  -0.50316  -0.50094  -0.49974  -0.47929
  Beta  occ. eigenvalues --   -0.47312  -0.46973  -0.46324  -0.46139  -0.45764
  Beta  occ. eigenvalues --   -0.43952  -0.43820  -0.43457  -0.42479  -0.41658
  Beta  occ. eigenvalues --   -0.41548  -0.41453  -0.40131  -0.39784  -0.39357
  Beta  occ. eigenvalues --   -0.38304  -0.37515  -0.35051  -0.34705  -0.33257
  Beta  occ. eigenvalues --   -0.30771
  Beta virt. eigenvalues --   -0.02679   0.05513   0.06008   0.07652   0.08320
  Beta virt. eigenvalues --    0.08815   0.09180   0.09677   0.10701   0.10844
  Beta virt. eigenvalues --    0.11055   0.13682   0.13979   0.14445   0.15195
  Beta virt. eigenvalues --    0.15412   0.16250   0.16703   0.17361   0.17574
  Beta virt. eigenvalues --    0.18239   0.18536   0.19389   0.20026   0.20439
  Beta virt. eigenvalues --    0.20718   0.21336   0.21779   0.22876   0.23180
  Beta virt. eigenvalues --    0.24015   0.24735   0.25569   0.26064   0.28003
  Beta virt. eigenvalues --    0.28681   0.28920   0.29651   0.30059   0.31055
  Beta virt. eigenvalues --    0.32105   0.32319   0.33347   0.33956   0.34221
  Beta virt. eigenvalues --    0.35387   0.36776   0.36987   0.38730   0.39110
  Beta virt. eigenvalues --    0.40095   0.41506   0.42783   0.42945   0.44184
  Beta virt. eigenvalues --    0.44634   0.45317   0.46019   0.46216   0.48891
  Beta virt. eigenvalues --    0.49218   0.49560   0.50847   0.51301   0.51832
  Beta virt. eigenvalues --    0.52196   0.52894   0.53722   0.54418   0.54927
  Beta virt. eigenvalues --    0.57481   0.58128   0.58431   0.59765   0.59911
  Beta virt. eigenvalues --    0.60786   0.61225   0.61956   0.62271   0.62734
  Beta virt. eigenvalues --    0.63766   0.64199   0.64580   0.64838   0.65069
  Beta virt. eigenvalues --    0.65357   0.65595   0.66113   0.66764   0.67107
  Beta virt. eigenvalues --    0.67557   0.68227   0.68488   0.68736   0.69123
  Beta virt. eigenvalues --    0.69486   0.69788   0.70599   0.71663   0.72491
  Beta virt. eigenvalues --    0.73536   0.74237   0.74306   0.74721   0.75593
  Beta virt. eigenvalues --    0.76255   0.78430   0.79171   0.81029   0.82167
  Beta virt. eigenvalues --    0.86020   0.87169   0.88133   0.88502   0.89279
  Beta virt. eigenvalues --    0.90496   0.93257   0.95476   0.95780   0.96245
  Beta virt. eigenvalues --    0.96654   0.98318   0.99576   1.00917   1.01656
  Beta virt. eigenvalues --    1.03416   1.04134   1.05266   1.07930   1.10025
  Beta virt. eigenvalues --    1.10791   1.11152   1.11796   1.13024   1.15131
  Beta virt. eigenvalues --    1.16862   1.19365   1.20901   1.24079   1.24751
  Beta virt. eigenvalues --    1.25664   1.26148   1.30048   1.31600   1.33218
  Beta virt. eigenvalues --    1.34020   1.34396   1.36291   1.36954   1.37997
  Beta virt. eigenvalues --    1.39920   1.41030   1.42916   1.44793   1.46106
  Beta virt. eigenvalues --    1.47039   1.47611   1.47776   1.47991   1.48278
  Beta virt. eigenvalues --    1.48773   1.49387   1.49985   1.50841   1.51242
  Beta virt. eigenvalues --    1.52101   1.52386   1.53800   1.54846   1.55030
  Beta virt. eigenvalues --    1.55460   1.56099   1.56502   1.57023   1.57817
  Beta virt. eigenvalues --    1.59315   1.59765   1.60113   1.60419   1.61295
  Beta virt. eigenvalues --    1.62696   1.63158   1.64446   1.65457   1.65879
  Beta virt. eigenvalues --    1.66532   1.66984   1.67869   1.68681   1.69469
  Beta virt. eigenvalues --    1.70582   1.70665   1.71486   1.72002   1.72244
  Beta virt. eigenvalues --    1.73968   1.75024   1.75730   1.76224   1.76383
  Beta virt. eigenvalues --    1.77419   1.78465   1.79399   1.79636   1.80255
  Beta virt. eigenvalues --    1.81075   1.83077   1.84310   1.85634   1.86088
  Beta virt. eigenvalues --    1.86702   1.88329   1.89126   1.89539   1.90445
  Beta virt. eigenvalues --    1.90930   1.91501   1.92607   1.93442   1.95975
  Beta virt. eigenvalues --    1.96385   1.97709   1.98002   1.99817   2.01750
  Beta virt. eigenvalues --    2.03585   2.04651   2.05246   2.06836   2.07571
  Beta virt. eigenvalues --    2.08518   2.09982   2.10123   2.11517   2.13240
  Beta virt. eigenvalues --    2.14310   2.16125   2.16751   2.18786   2.19336
  Beta virt. eigenvalues --    2.21340   2.21925   2.23801   2.24569   2.25199
  Beta virt. eigenvalues --    2.26220   2.27140   2.30769   2.31882   2.33046
  Beta virt. eigenvalues --    2.34861   2.37328   2.37866   2.41033   2.41788
  Beta virt. eigenvalues --    2.42313   2.44693   2.45644   2.46565   2.47494
  Beta virt. eigenvalues --    2.48875   2.49186   2.49481   2.50684   2.51061
  Beta virt. eigenvalues --    2.52109   2.53056   2.53519   2.54589   2.55055
  Beta virt. eigenvalues --    2.56402   2.56500   2.56972   2.58012   2.58787
  Beta virt. eigenvalues --    2.58881   2.59286   2.59711   2.60079   2.61497
  Beta virt. eigenvalues --    2.62169   2.62418   2.65138   2.65563   2.66038
  Beta virt. eigenvalues --    2.66644   2.68105   2.68588   2.69839   2.70743
  Beta virt. eigenvalues --    2.71707   2.74985   2.75488   2.76986   2.78205
  Beta virt. eigenvalues --    2.80120   2.81768   2.83069   2.84529   2.86937
  Beta virt. eigenvalues --    2.87211   2.88039   2.89918   2.90343   2.91245
  Beta virt. eigenvalues --    2.94187   2.94461   2.94838   2.95819   2.96306
  Beta virt. eigenvalues --    2.98223   2.98735   3.01303   3.03104   3.05993
  Beta virt. eigenvalues --    3.06969   3.08390   3.11311   3.11922   3.13099
  Beta virt. eigenvalues --    3.16821   3.18223   3.21067   3.23205   3.24384
  Beta virt. eigenvalues --    3.25863   3.26389   3.28750   3.30065   3.32544
  Beta virt. eigenvalues --    3.35864   3.39074   3.40064   3.41486   3.42221
  Beta virt. eigenvalues --    3.51693   3.55614   3.56955   3.60312   3.63735
  Beta virt. eigenvalues --    3.68007   3.77813   3.78775   3.80467   3.81082
  Beta virt. eigenvalues --    3.81437   3.82710   3.83958   3.84893   3.85651
  Beta virt. eigenvalues --    3.86459   3.86734   3.87652   3.88913   3.90040
  Beta virt. eigenvalues --    3.91767   3.96311   3.97443   4.03688   4.06795
  Beta virt. eigenvalues --    4.09896   4.13310   4.20271   4.23701   4.24974
  Beta virt. eigenvalues --    4.32861   4.37265   4.38974   4.39596   4.84607
  Beta virt. eigenvalues --    4.88883   4.91389   4.92287   4.93721   5.02841
  Beta virt. eigenvalues --    5.04121   5.11085   5.15993   5.22574   5.37729
  Beta virt. eigenvalues --    5.40070   5.66519   5.75443   5.82748   6.04685
  Beta virt. eigenvalues --   23.78112  23.84178  23.87598  23.88531  23.89272
  Beta virt. eigenvalues --   23.94760  23.97436  24.00753  24.02885  24.03397
  Beta virt. eigenvalues --   24.05877  24.07926  35.54065  35.68408  49.96799
  Beta virt. eigenvalues --   50.01762  50.04982  50.10897
          Condensed to atoms (all electrons):
               1          2          3          4          5          6
     1  O    7.989821   0.320925   0.005768   0.000013   0.000000  -0.048628
     2  H    0.320925   0.434864  -0.000203   0.000021  -0.000001  -0.001937
     3  C    0.005768  -0.000203   5.583701   0.195173  -0.085049   0.192200
     4  N    0.000013   0.000021   0.195173   6.894541   0.161201  -0.040981
     5  O    0.000000  -0.000001  -0.085049   0.161201   8.384242   0.006467
     6  C   -0.048628  -0.001937   0.192200  -0.040981   0.006467   5.348093
     7  C    0.255546  -0.040820  -0.046265  -0.009577   0.000172   0.309653
     8  C   -0.057718   0.010258   0.006206  -0.033898   0.006351  -0.101249
     9  C    0.003825  -0.000732  -0.100300   0.188465  -0.083741   0.012376
    10  C   -0.000102   0.000028   0.008257  -0.071423   0.003248  -0.002926
    11  C   -0.000139  -0.000005   0.320207  -0.071962   0.005902  -0.065137
    12  C   -0.000070   0.000007  -0.002987  -0.073573  -0.006518   0.001752
    13  C   -0.000043  -0.000008   0.308706  -0.075185  -0.004577  -0.088774
    14  H   -0.000624   0.004792  -0.028602   0.004942  -0.000149   0.404665
    15  H    0.008160  -0.001083  -0.033341  -0.000950  -0.000286   0.403989
    16  H    0.004465  -0.000276  -0.001306   0.004576  -0.000139   0.011047
    17  H    0.006726  -0.000555   0.002544  -0.000850  -0.000293  -0.011613
    18  H   -0.000017   0.000001  -0.000082   0.005986   0.000487  -0.000052
    19  H   -0.000028   0.000000   0.000033   0.001351  -0.000835   0.000277
    20  H    0.000004  -0.000001   0.000537  -0.006909   0.009410  -0.000115
    21  H   -0.000024   0.000000  -0.035908   0.000793  -0.001180  -0.007195
    22  H   -0.000021   0.000002  -0.042877   0.005924   0.000498  -0.004196
    23  H    0.000005  -0.000001  -0.033143  -0.005433   0.007536   0.008300
    24  H   -0.030254  -0.004845   0.003804  -0.001284  -0.000071  -0.060456
    25  H    0.000004  -0.000002   0.000146  -0.009978   0.012405  -0.000143
    26  H   -0.000020   0.000002  -0.000238   0.006308  -0.000205  -0.000063
    27  H   -0.000174   0.000024   0.001265  -0.001458  -0.000218  -0.001554
    28  H   -0.000016   0.000006  -0.036000   0.006344  -0.000147  -0.005044
    29  H    0.000005  -0.000001  -0.035994  -0.008752   0.011334   0.009057
    30  H   -0.000143  -0.000017  -0.029565  -0.001894  -0.000331  -0.006442
    31  O    0.000000   0.000000   0.000000   0.000000   0.000000   0.000000
    32  O    0.000000   0.000000   0.000000   0.000000   0.000000   0.000000
    33  N    0.000000   0.000000  -0.000004  -0.000009  -0.001059   0.000000
    34  C    0.000000   0.000000   0.000028  -0.000162   0.003828  -0.000001
    35  C    0.000000   0.000000  -0.000662   0.007930  -0.071739   0.000005
    36  C    0.000000   0.000000   0.000000   0.000004  -0.000006   0.000000
    37  H    0.000000   0.000000   0.000009  -0.000066   0.000775   0.000000
    38  H    0.000000   0.000000  -0.000269  -0.000022   0.004924  -0.000002
    39  H    0.000000   0.000000   0.000001  -0.000004  -0.000096   0.000000
    40  H    0.000000   0.000000   0.000000   0.000000   0.000000   0.000000
    41  H    0.000000   0.000000   0.000039  -0.000109   0.000047  -0.000002
    42  H    0.000000   0.000000  -0.000011  -0.000055  -0.000094   0.000000
    43  H    0.000000   0.000000   0.000309  -0.008269   0.015364   0.000019
               7          8          9         10         11         12
     1  O    0.255546  -0.057718   0.003825  -0.000102  -0.000139  -0.000070
     2  H   -0.040820   0.010258  -0.000732   0.000028  -0.000005   0.000007
     3  C   -0.046265   0.006206  -0.100300   0.008257   0.320207  -0.002987
     4  N   -0.009577  -0.033898   0.188465  -0.071423  -0.071962  -0.073573
     5  O    0.000172   0.006351  -0.083741   0.003248   0.005902  -0.006518
     6  C    0.309653  -0.101249   0.012376  -0.002926  -0.065137   0.001752
     7  C    4.996216   0.290489  -0.044889   0.008913   0.008510  -0.008874
     8  C    0.290489   5.355096   0.194412  -0.070619  -0.002989  -0.084483
     9  C   -0.044889   0.194412   5.577104   0.331588   0.008552   0.303914
    10  C    0.008913  -0.070619   0.331588   5.010822  -0.000202  -0.088120
    11  C    0.008510  -0.002989   0.008552  -0.000202   5.016047  -0.000665
    12  C   -0.008874  -0.084483   0.303914  -0.088120  -0.000665   5.061890
    13  C   -0.008298   0.002177  -0.002953  -0.000683  -0.090441  -0.000325
    14  H   -0.032808   0.009996  -0.001053   0.000078  -0.006579   0.000023
    15  H   -0.046306  -0.011863   0.002495  -0.000488  -0.007417   0.000250
    16  H   -0.032197   0.403696  -0.028779  -0.005686   0.000103  -0.004269
    17  H   -0.044856   0.404490  -0.034318  -0.007717  -0.000472   0.008330
    18  H    0.000224  -0.004055  -0.042050   0.410591   0.000017  -0.005032
    19  H   -0.000407  -0.008177  -0.036592   0.402529  -0.000138   0.009263
    20  H   -0.000446   0.009120  -0.034227   0.406060  -0.000023  -0.007324
    21  H   -0.000453   0.000308  -0.000020  -0.000151   0.401490   0.000056
    22  H    0.000303  -0.000040  -0.000066   0.000019   0.411129   0.000015
    23  H   -0.000368  -0.000079   0.000279  -0.000013   0.405406  -0.000009
    24  H    0.419828  -0.060773   0.004742  -0.000227  -0.000176   0.001655
    25  H   -0.000275   0.009340  -0.036982  -0.009423  -0.000173   0.406260
    26  H    0.000408  -0.004495  -0.035078  -0.005078   0.000027   0.406577
    27  H    0.002414  -0.006407  -0.031878   0.007552  -0.000048   0.404323
    28  H    0.000290  -0.000021  -0.000222   0.000027  -0.004329   0.000091
    29  H   -0.000192  -0.000137   0.000168  -0.000140  -0.010962   0.000592
    30  H    0.002382  -0.001392   0.001069  -0.000023   0.007657  -0.002276
    31  O    0.000000   0.000000   0.000000   0.000000   0.000000   0.000000
    32  O    0.000000   0.000000   0.000000   0.000000   0.000000   0.000000
    33  N    0.000000   0.000000   0.000010  -0.000023  -0.000030   0.000000
    34  C    0.000000   0.000000  -0.000057   0.000103   0.000005  -0.000005
    35  C    0.000001   0.000002  -0.000534  -0.000258  -0.000147  -0.000020
    36  C    0.000000   0.000000  -0.000001   0.000002   0.000000   0.000000
    37  H    0.000000   0.000003  -0.000016   0.000168  -0.000002  -0.000002
    38  H    0.000000  -0.000010  -0.000099   0.000263   0.000508  -0.000002
    39  H    0.000000   0.000000   0.000001  -0.000004   0.000002   0.000000
    40  H    0.000000   0.000000   0.000000   0.000000   0.000000   0.000000
    41  H    0.000000   0.000001  -0.000011   0.000007   0.000046   0.000000
    42  H    0.000000  -0.000001   0.000029   0.000014   0.000017   0.000024
    43  H   -0.000004   0.000003   0.000658  -0.000835  -0.000878  -0.000129
              13         14         15         16         17         18
     1  O   -0.000043  -0.000624   0.008160   0.004465   0.006726  -0.000017
     2  H   -0.000008   0.004792  -0.001083  -0.000276  -0.000555   0.000001
     3  C    0.308706  -0.028602  -0.033341  -0.001306   0.002544  -0.000082
     4  N   -0.075185   0.004942  -0.000950   0.004576  -0.000850   0.005986
     5  O   -0.004577  -0.000149  -0.000286  -0.000139  -0.000293   0.000487
     6  C   -0.088774   0.404665   0.403989   0.011047  -0.011613  -0.000052
[...]
 052,0.00000055,0.00000073,-0.00000166,0.00001122,-0.00000488,-0.000017
 74,-0.00001356,-0.00000591,0.00002470,0.00000310,0.00000083,-0.0000037
 7,0.00000144,0.00000033,-0.00000112,-0.00000060,0.00000032,-0.00000044
 ,0.00033984,-0.00087994,-0.00044318,0.00016993,-0.00092306,-0.00171236
 ,0.02382117,-0.00694515,-0.02206382,0.00921180,-0.01220993,-0.00649010
 ,0.00123091,-0.00071403,0.00039133,-0.00091157,0.00251340,0.00270449,-
 0.00032853,0.00102782,0.00027094,0.02252937,-0.01716364,-0.00515394,-0
 .05535467,0.03441970,0.03350064,0.00000418,0.00000273,0.00000173,-0.00
 000067,-0.00000053,0.00000049,-0.00000396,-0.00001225,-0.00000052,-0.0
 0000795,-0.00000003,-0.00000311,0.00003325,0.00001903,-0.00001095,0.00
 000067,0.00000391,-0.00000170,-0.00000316,-0.00000284,0.00000083,0.000
 00202,0.00000204,-0.00000432,-0.00000468,-0.00000154,-0.00000101,0.000
 01124,0.00000253,0.00000322,0.00000074,0.00000208,0.00000469,0.0000029
 3,0.00000078,0.00000259,0.00000072,0.00000355,0.00000278,0.00000084,0.
 00000064,0.00000089,-0.00000061,-0.00000110,-0.00000025,0.00000019,0.0
 0000022,0.00000078,-0.00000121,-0.00000021,-0.00000013,0.00000699,-0.0
 0000117,-0.00000014,-0.00000975,0.00000052,-0.00001517,-0.00000578,0.0
 0000708,0.00000964,-0.00000045,-0.00000341,-0.00000371,0.00000043,0.00
 000265,-0.00000074,0.,-0.00000167,0.00000024,0.00000044,0.00000032,-0.
 00000068,-0.00000059,0.00000020,0.00000042,0.00000082,-0.00000087,-0.0
 0000103,0.00000148,0.00000125,-0.00000178,0.00000051,0.00000168,-0.000
 00138,-0.00000031,-0.00000080,0.00000016,0.00000021,-0.00000065,-0.000
 00025,-0.35045208,-0.10520599,0.20614502,-0.00244345,0.00684733,-0.000
 60297,0.00039815,0.00002602,0.00025611,0.00270070,-0.00097275,0.000264
 99,-0.00007185,0.00006600,0.00023810,-0.00777539,-0.01281547,0.0046706
 0,0.00061014,0.00014325,-0.00046795,0.00013971,-0.00010200,-0.00002112
 ,-0.00009906,-0.00024017,0.00005786,0.35698888,0.00000218,0.00000202,0
 .00000090,-0.00000037,-0.00000032,0.00000033,0.00000142,-0.00000305,0.
 00000264,0.00000689,0.00000399,0.00000687,-0.00000299,0.00001303,0.000
 01365,0.00000054,0.00000138,-0.00000024,-0.00000082,-0.00000285,0.0000
 0021,0.00000004,0.00000313,-0.00000316,0.00000286,-0.00001295,0.000000
 94,-0.00000929,0.00000225,-0.00000037,0.00000019,-0.00000227,-0.000005
 22,0.00000141,0.00000388,0.00000119,-0.00000052,0.00000088,0.00000032,
 0.00000013,0.00000026,0.00000039,-0.00000022,-0.00000026,0.,0.00000012
 ,0.00000013,-0.00000022,-0.00000106,-0.00000005,-0.00000026,0.00001019
 ,0.00000188,-0.00000040,-0.00000283,-0.00000847,-0.00001768,-0.0000114
 6,0.00000549,0.00001861,-0.00000083,-0.00000061,0.00000435,-0.00000206
 ,-0.00000082,0.00000166,-0.00000004,0.00000064,-0.00000005,0.00000004,
 0.00000015,-0.00000021,-0.00000090,-0.00000048,0.00000061,-0.00000021,
 -0.00000031,0.00000033,0.00000115,0.00000048,-0.00000177,0.,0.00000031
 ,-0.00000027,0.,-0.00000012,-0.00000009,0.00000005,-0.00000036,0.00000
 024,-0.06684561,-0.06660464,0.03397724,0.00425816,0.00807974,0.0001151
 3,-0.00122951,-0.00029297,0.00108819,0.00085738,-0.00543096,-0.0035917
 3,0.00035830,0.00018861,-0.00013281,-0.04908419,-0.02244341,0.02833997
 ,-0.00006965,0.00045106,-0.00017738,-0.00001453,-0.00041288,-0.0003055
 6,-0.00013214,-0.00010936,0.00012905,0.11193519,0.08639530,-0.00000149
 ,-0.00000123,-0.00000168,0.00000010,0.00000047,0.00000007,0.00000071,0
 .00000506,0.00000086,0.00000293,0.00000019,-0.00000211,-0.00002152,-0.
 00000842,0.00000479,-0.00000074,-0.00000220,0.00000171,0.00000128,0.00
 000118,0.00000048,-0.00000136,0.00000044,0.00000293,0.00000146,0.00000
 315,0.00000112,0.00000720,-0.00000027,-0.00000230,-0.00000142,-0.00000
 129,0.00000050,-0.00000131,0.00000044,-0.00000214,-0.00000006,-0.00000
 199,-0.00000129,-0.00000028,0.00000003,-0.00000059,0.00000035,0.000000
 41,-0.00000067,-0.00000002,-0.00000017,-0.00000038,0.00000137,-0.00000
 017,-0.00000043,-0.00000517,-0.00000022,0.00000058,0.00000518,0.000004
 99,0.00000738,0.00000452,-0.00000171,-0.00000720,0.00000055,0.00000144
 ,0.00000037,0.00000017,-0.00000086,-0.00000033,0.00000006,0.00000063,-
 0.00000060,0.00000040,0.00000015,-0.00000016,0.00000020,-0.00000005,-0
 .00000059,-0.00000048,0.00000049,0.00000070,-0.00000046,-0.00000055,0.
 00000065,-0.00000021,-0.00000068,0.00000071,0.,0.00000041,-0.00000025,
 0.00000010,0.00000033,0.,0.21485247,0.05973442,-0.14861828,-0.00091603
 ,-0.00166895,-0.00515663,0.00014715,-0.00037395,-0.00013209,0.00073429
 ,-0.00100742,0.00399038,-0.00071643,-0.00041237,0.00023630,-0.00374053
 ,0.00369863,0.00652492,0.00034181,-0.00049955,-0.00026610,-0.00005597,
 0.00000705,0.00013243,0.00002987,0.00000669,-0.00000911,-0.21079705,-0
 .05976239,0.14297418,-0.00002195,-0.00001663,-0.00001450,0.00000149,0.
 00000077,-0.00000137,-0.00000670,0.00006310,-0.00001266,0.00008289,-0.
 00004207,-0.00000331,-0.00022304,-0.00020291,0.00000709,-0.00000043,-0
 .00002179,0.00001175,0.00001416,0.00002147,-0.00000541,-0.00000835,-0.
 00003611,0.00003306,0.00002700,0.00001379,-0.00001320,0.00002413,0.000
 07742,0.00010988,-0.00001249,-0.00001187,0.00000358,-0.00001224,-0.000
 00423,-0.00001468,-0.00000094,-0.00001957,-0.00001838,-0.00000770,-0.0
 0000626,-0.00000737,0.00000057,0.00000281,-0.00000133,-0.00000521,0.00
 000202,-0.00000238,0.00000480,0.00000076,0.00000223,-0.00006917,-0.000
 01295,-0.00004433,0.00002949,0.00000980,0.00003664,0.00016066,-0.00009
 726,-0.00010187,-0.00000488,-0.00000765,-0.00000333,0.00000501,-0.0000
 0902,0.00000002,-0.00000468,-0.00000010,-0.00000363,-0.00000078,-0.000
 00191,0.00000261,0.00000565,0.00000073,-0.00000965,-0.00000436,0.00000
 526,0.00000453,-0.00000943,-0.00000502,0.00000843,-0.00000345,-0.00000
 855,0.00000753,0.00000142,0.00000486,-0.00000267,-0.00000107,0.0000026
 3,-0.00000006,0.00020393,0.00044157,-0.00025657,0.00074370,-0.00005937
 ,-0.00079601,0.00070259,-0.00095260,0.00081360,-0.00547482,0.00499341,
 -0.00117155,-0.20728784,0.12825398,-0.02821807,-0.00052126,-0.00088194
 ,0.00090121,0.00098353,-0.00005442,-0.00148901,-0.00027293,0.00000236,
 -0.00005785,-0.00026562,-0.00022471,-0.00053304,-0.00005567,-0.0000147
 5,0.00001511,0.22104365,0.00000060,0.00000025,-0.00000015,-0.00000056,
 -0.00000078,-0.00000024,-0.00000444,-0.00000342,-0.00000716,0.00001796
 ,-0.00000056,-0.00001197,0.00005624,-0.00003970,0.00002054,-0.00000030
 ,-0.00000178,-0.00000062,-0.00000178,0.00000032,-0.00000005,-0.0000011
 1,-0.00000527,0.00000116,0.00000753,-0.00000082,-0.00000472,0.00001204
 ,0.00004303,0.00004186,-0.00000033,0.00000364,0.00001159,0.00000424,0.
 00000018,0.00000064,-0.00000003,0.00000105,0.00000113,0.00000001,0.000
 00012,-0.00000019,-0.00000037,0.00000060,0.00000002,0.00000080,0.00000
 031,0.00000007,0.00000024,0.00000019,0.00000067,-0.00000487,-0.0000063
 3,-0.00002069,-0.00001281,0.00000456,-0.00002322,0.00003345,-0.0000300
 1,0.00000377,-0.00000449,-0.00001518,-0.00000870,0.00000282,0.00000142
 ,-0.00000025,0.00000181,-0.00000231,0.00000154,0.,-0.00000023,-0.00000
 020,0.00000040,-0.00000008,-0.00000098,0.00000004,-0.00000034,-0.00000
 074,-0.00000098,0.00000021,-0.00000058,0.00000015,0.00000039,-0.000000
 62,-0.00000012,-0.00000015,-0.00000016,0.00000071,-0.00000037,-0.00000
 062,-0.00038725,-0.00023690,0.00022851,-0.00053821,0.00009690,0.000355
 20,-0.00063885,0.00167564,0.00041250,-0.00037973,-0.00236766,-0.000002
 84,0.12860744,-0.15160720,0.02333757,0.00125723,-0.00031589,-0.0000136
 0,-0.00037437,0.00106727,0.00012726,-0.00019164,0.00001863,0.00013112,
 0.00026876,0.00025958,-0.00000295,0.00000676,0.00002792,0.00009162,-0.
 14152134,0.15963608,0.00000573,0.00000150,0.00000330,-0.00000110,-0.00
 000050,0.00000006,0.00000937,-0.00002385,0.00001325,-0.00003114,0.0000
 3426,0.00000222,0.00011436,0.00008336,0.00001638,-0.00000020,0.0000104
 0,-0.00000486,-0.00000645,-0.00000080,0.00000093,0.00000414,0.00000224
 ,-0.00000534,-0.00003505,0.00005281,0.00001300,-0.00001877,-0.00010715
 ,-0.00009663,0.00000469,0.00000279,0.00000236,-0.00000371,-0.00002465,
 0.00000598,-0.00000012,0.00000702,0.00000800,0.00000399,0.00000172,0.0
 0000322,-0.00000061,-0.00000106,0.00000039,0.00000192,-0.00000082,0.00
 000231,-0.00000091,0.00000071,0.00000065,0.00000717,0.00000888,0.00002
 789,0.00002218,0.00004143,0.00007377,-0.00005030,0.00003148,-0.0000225
 2,-0.00000498,-0.00000020,-0.00000168,-0.00000160,0.00000325,0.0000002
 9,0.00000181,-0.00000051,0.00000065,0.00000010,-0.00000007,-0.00000034
 ,-0.00000274,-0.00000111,0.00000525,0.00000394,-0.00000202,-0.00000482
 ,-0.00000049,0.00000165,0.00000574,0.00000148,0.00000357,-0.00000316,-
 0.00000059,-0.00000173,0.00000111,0.00000052,-0.00000063,-0.00000055,0
 .00047840,0.00007677,-0.00005399,0.00064813,-0.00082501,0.00010550,0.0
 0208314,0.00059401,0.00316434,-0.02556549,0.02239010,-0.00809523,-0.02
 756492,0.02147209,-0.05082843,-0.00316221,0.00141397,0.00172870,-0.001
 23083,-0.00006949,-0.00635457,-0.00023135,-0.00034873,0.00004095,0.000
 15817,-0.00071246,-0.00052630,-0.00003196,0.00005195,-0.00006682,0.033
 31745,-0.02685565,0.05761028,-0.00002632,-0.00000803,-0.00001663,0.000
 00345,0.00000005,-0.00000016,-0.00001662,0.00009407,-0.00001247,0.0000
 9207,-0.00007854,0.00001723,-0.00050331,-0.00023785,-0.00004439,0.0000
 0255,-0.00003233,0.00001720,0.00002961,0.00000995,0.00000141,-0.000007
 76,0.00000430,0.00002423,0.00005733,-0.00006169,0.00003767,-0.00004748
 ,0.00005006,-0.00000457,-0.00001991,-0.00002058,-0.00001313,-0.0000202
 3,0.00002536,-0.00002802,-0.00000096,-0.00002940,-0.00003058,-0.000013
 15,-0.00000733,-0.00001146,0.00000110,0.00000304,-0.00000192,-0.000010
 58,0.00000165,-0.00000686,0.00000400,-0.00000108,-0.00000094,-0.000046
 60,0.00000650,-0.00001133,0.00004162,-0.00001107,0.00004985,0.00008515
 ,-0.00008564,-0.00002619,0.00000567,0.00001926,0.00001196,0.00000128,-
 0.00001507,-0.00000088,-0.00000352,0.00000874,-0.00000436,-0.00000068,
 -0.00000051,0.00000263,0.00000451,-0.00000521,-0.00000636,-0.00001179,
 0.00000795,0.00001325,-0.00000474,-0.00000498,0.00000388,-0.00000562,-
 0.00001334,0.00001314,0.00000238,0.00000697,-0.00000500,-0.00000336,0.
 00000315,0.00000152,-0.00020808,-0.00016599,0.00042810,0.00030766,-0.0
 0002612,-0.00009902,0.00076890,-0.00093357,-0.00215184,-0.00336043,-0.
 00674789,-0.00010836,-0.06473325,-0.06168479,-0.02172853,-0.00031421,0
 .00021563,0.00028066,0.00001027,0.00006795,0.00034755,0.00046115,0.000
 58147,0.00014408,-0.00024416,-0.00022280,-0.00048488,0.00002117,0.0000
 0322,0.00008676,0.00776563,0.02258077,0.00899980,0.06470346,-0.0000178
 6,-0.00000628,-0.00001105,0.00000232,0.00000019,-0.00000025,-0.0000026
 3,0.00005919,0.00000156,0.00006053,-0.00002653,0.00001934,-0.00025849,
 -0.00010279,-0.00001605,0.00000114,-0.00001546,0.00001118,0.00001797,0
 .00000812,-0.00000024,-0.00000438,-0.00000204,0.00001696,0.00003342,-0
 .00003062,0.00000997,-0.00001506,0.00002222,0.00001677,-0.00000864,-0.
 00001308,-0.00000802,-0.00001450,0.00001116,-0.00001625,-0.00000150,-0
 .00001880,-0.00001802,-0.00000750,-0.00000500,-0.00000617,0.00000068,0
 .00000214,-0.00000058,-0.00000694,0.00000142,-0.00000404,0.00000264,-0
 .00000079,0.00000056,-0.00003042,0.00000329,-0.00000531,0.00002206,-0.
 00001059,0.00002956,-0.00000170,-0.00005467,-0.00004585,-0.00000162,0.
 00000492,0.00000948,-0.00000231,-0.00001106,0.00000170,-0.00000039,0.0
 0000934,-0.00000529,-0.00000072,-0.00000061,0.00000193,0.00000372,-0.0
 0000227,-0.00000502,-0.00000667,0.00000507,0.00000763,-0.00000334,-0.0
 0000341,0.00000390,-0.00000326,-0.00000822,0.00000796,0.00000177,0.000
 00409,-0.00000342,-0.00000259,0.00000214,0.00000108,-0.00005298,0.0001
 4431,0.00128714,0.00025262,0.00026579,-0.00009480,-0.00097966,0.000935
 14,-0.00069578,0.00140295,0.00181261,0.00111735,-0.06193471,-0.2776306
 2,-0.07884805,-0.00092133,-0.00114014,-0.00028453,-0.00002772,0.000321
 75,-0.00056350,0.00049069,0.00023496,0.00016891,-0.00000036,0.00031201
 ,0.00045644,0.00009921,0.00004033,0.00012677,-0.00578413,-0.01544675,-
 0.00549811,0.06856545,0.29798618,-0.00000394,-0.00000130,-0.00000222,0
 .00000027,-0.00000018,-0.00000014,0.00003960,-0.00000437,0.00002427,0.
 00008583,0.00008638,0.00004440,0.00012855,0.00008222,0.00015466,-0.000
 00091,0.00001273,0.00000085,0.00000185,0.00000185,-0.00000155,0.000002
 34,-0.00000478,0.00000180,0.00002015,0.00003351,-0.00001925,0.00000014
 ,0.00001048,-0.00007306,0.00001171,-0.00000520,-0.00004902,-0.00000370
 ,-0.00001249,0.00000227,-0.00000638,0.00000076,0.00000203,0.00000184,-
 0.00000066,0.00000319,0.00000194,0.00000018,0.00000190,-0.00000045,0.0
 0000049,0.00000178,0.00000362,0.00000180,0.00000259,-0.00001508,0.0000
 0318,0.00002121,0.00006320,-0.00004728,0.00005664,-0.00002978,0.000003
 96,-0.00001916,0.00000805,0.00005296,0.00003138,-0.00001153,-0.0000086
 3,0.00001036,-0.00000078,0.00000499,-0.00000373,-0.00000076,-0.0000004
 1,0.00000053,-0.00000047,0.,0.00000118,0.00000155,-0.00000024,-0.00000
 235,-0.00000146,-0.00000116,0.00000487,0.00000052,0.00000019,-0.000000
 96,0.00000047,0.00000022,-0.00000093,-0.00000150,0.,0.00000264,0.00001
 501,0.00073890,0.00023578,0.00005441,0.00063070,-0.00007097,-0.0033783
 1,-0.00250383,-0.00821271,-0.00504953,-0.02850864,-0.00511791,-0.02093
 081,-0.07566300,-0.07383064,-0.00043638,-0.00287754,0.00000824,-0.0001
 3899,0.00043195,0.00117854,0.00092850,0.00051032,-0.00020513,-0.000350
 69,0.00021924,0.00004620,0.00026991,0.00034690,0.00014601,0.00215681,0
 .00475214,0.00077271,0.02411005,0.08561057,0.07874897,0.00003959,0.000
 02624,0.00002459,-0.00000394,-0.00000117,0.00000184,0.00004133,-0.0001
 4444,-0.00005477,-0.00045111,-0.00006586,-0.00010547,-0.00040834,-0.00
 031525,0.00023799,-0.00000147,0.00003638,-0.00002902,-0.00003121,-0.00
 003492,0.00000661,0.00001805,0.00003407,-0.00006250,-0.00001896,0.0000
 1326,0.00006029,-0.00006705,-0.00021651,-0.00026078,0.00002523,0.00001
 325,-0.00000472,0.00001418,-0.00001945,0.00001980,0.00000157,0.0000537
 0,0.00004193,0.00001512,0.00001058,0.00001480,-0.00000191,-0.00000385,
 0.00000277,0.00001678,-0.00000345,0.00000953,-0.00000896,0.00000203,0.
 00000011,0.00010189,0.00001877,0.00005706,0.00003080,0.00000255,-0.000
 02811,-0.00009682,0.00030855,0.00018176,0.00000316,0.00000570,0.000001
 02,-0.00001000,0.00001612,0.00000397,0.00000731,-0.00000730,0.00000533
 ,0.00000032,0.00000188,-0.00000340,0.00000039,0.00002346,0.00002354,0.
 00001089,-0.00001054,-0.00001361,0.00001294,0.00000789,-0.00000778,0.0
 0000753,0.00001816,-0.00001948,-0.00000393,-0.00001098,0.00000937,0.00
 000371,-0.00000406,0.00000033,0.00032577,0.00052108,0.00017047,0.00134
 125,-0.00022821,-0.00019234,0.00075066,0.00121215,0.00040566,0.0071712
 1,0.00312672,-0.00740003,-0.21792834,-0.07091451,0.11504196,-0.0012402
 1,-0.00072835,-0.00221861,0.00067429,0.00010787,0.00082484,0.00017642,
 0.00002394,0.00036675,-0.00004842,-0.00005361,-0.00009524,0.00001020,-
 0.00001550,0.00002652,-0.01752531,-0.00879642,0.01207904,-0.00476619,-
 0.00086575,0.00245512,0.23181159,0.00002974,-0.00000219,0.00001799,-0.
 00000734,-0.00000121,-0.00000176,0.00007480,-0.00016152,-0.00004130,-0
 .00030853,0.00008665,-0.00001384,-0.00000350,-0.00051447,0.00016722,-0
 .00000862,0.00005355,-0.00003245,-0.00005040,0.00000362,-0.00001475,0.
 00000832,-0.00008410,-0.00001971,-0.00009604,0.00020941,-0.00012127,0.
 00008090,0.00001676,0.00016180,0.00002992,0.00001792,0.00000465,0.0000
 3528,-0.00006964,0.00003973,0.,0.00006325,0.00005500,0.00002244,0.0000
 0880,0.00001839,-0.00000172,-0.00000435,0.00000339,0.00002066,-0.00000
 022,0.00001721,-0.00000163,0.00000332,0.00000606,-0.00002459,-0.000033
 80,-0.00002479,0.00000097,0.00001368,-0.00001185,0.00028358,0.00000035
 ,-0.00000443,-0.00000144,-0.00000372,-0.00000997,-0.00000771,0.0000217
 2,0.00000512,0.00000809,-0.00001577,0.00000989,-0.00000029,-0.00000166
 ,-0.00000161,-0.00002055,0.00001052,0.00002594,0.00002369,-0.00001156,
 -0.00002709,-0.00000229,0.00000330,0.00000497,0.00001006,0.00002240,-0
 .00002446,-0.00000490,-0.00001484,0.00001057,0.00000695,-0.00000281,-0
 .00000163,-0.00026103,0.00002224,0.00070563,-0.00014652,0.00027751,0.0
 0025639,0.00090740,0.00062083,-0.00035734,-0.00108939,-0.00129494,-0.0
 0065448,-0.07077201,-0.07703882,0.04779945,0.00028905,-0.00038191,-0.0
 0058846,-0.00029044,-0.00014214,0.00008917,-0.00003807,-0.00009009,-0.
 00037978,0.00002222,0.00000299,-0.00002605,0.00018849,0.00010429,0.000
 05944,0.01610044,0.00724343,-0.01181142,-0.02186175,-0.00765664,0.0161
 0309,0.07685576,0.07871986,0.00007354,0.00003524,0.00004756,-0.0000071
 0,-0.00000065,0.00000206,0.00005518,-0.00022871,0.00003850,-0.00024369
 ,0.00016589,-0.00004938,0.00075463,0.00028436,0.00001970,0.00000091,0.
 00008206,-0.00004171,-0.00006716,-0.00004216,0.00000391,0.00002866,0.0
 0005096,-0.00008325,-0.00010582,0.00008433,-0.00002068,0.00003501,-0.0
 0024411,-0.00027374,0.00004884,0.00004245,0.00000070,0.00004517,-0.000
 04795,0.00007705,-0.00000237,0.00007421,0.00007289,0.00003236,0.000020
 63,0.00002829,-0.00000344,-0.00000550,0.00000672,0.00002448,-0.0000055
 1,0.00001645,-0.00001150,0.00000353,-0.00000138,0.00016713,0.00001459,
 0.00008958,-0.00005084,0.00002287,-0.00008282,-0.00037346,0.00033818,0
 .00024741,-0.00000061,-0.00000912,-0.00000878,-0.00001488,0.00003269,0
 .00000950,0.00000846,-0.00002300,0.00000949,0.00000191,0.00000294,-0.0
 0000640,-0.00001273,0.00001286,0.00001120,0.00002256,-0.00002111,-0.00
 003106,0.00001898,0.00001557,-0.00001541,0.00001396,0.00003434,-0.0000
 3110,-0.00000750,-0.00002122,0.00001537,0.00000741,-0.00000769,-0.0000
 0077,0.00113754,0.00130419,0.00029500,0.00310312,-0.00050629,-0.000752
 93,0.00026380,0.00154582,0.00318755,0.02549304,0.01158358,-0.02354785,
 0.11272174,0.04565973,-0.11816586,-0.00692040,-0.00186928,-0.00394973,
 0.00006458,-0.00014322,0.00174340,-0.00036466,-0.00142017,-0.00063508,
 0.00004581,0.00001750,-0.00006248,0.00003684,-0.00010181,0.00024266,-0
 .00464926,-0.00256199,0.00245604,-0.00979310,-0.00277641,0.00610474,-0
 .12157717,-0.05139267,0.13303464\\0.00000072,-0.00000061,0.00000160,0.
 00000163,-0.00000211,-0.00000132,0.00000245,0.00000293,-0.00000082,-0.
 00000553,-0.00000112,-0.00000174,0.00000118,0.00000488,0.00000181,0.00
 000144,-0.00000171,0.00000136,-0.00000063,-0.00000058,-0.00000308,-0.0
 0000086,-0.00000092,-0.00000297,0.00000041,-0.00000244,0.00000348,0.00
 000354,0.00000140,-0.00000149,-0.00000043,-0.00000040,0.00000119,0.000
 00065,-0.00000115,-0.00000215,-0.00000082,-0.00000032,0.00000204,0.000
 00069,-0.00000078,0.00000041,0.00000112,-0.00000088,0.00000057,0.00000
 008,-0.00000084,-0.00000131,-0.00000031,-0.00000135,-0.00000111,-0.000
 00054,-0.00000040,-0.00000173,-0.00000078,-0.00000122,-0.00000104,-0.0
 0000013,0.00000055,-0.00000071,0.00000058,0.00000012,0.00000118,0.0000
 0073,-0.00000027,0.00000201,-0.00000012,0.00000019,0.00000175,-0.00000
 024,0.00000029,-0.00000019,-0.00000142,0.00000138,-0.00000070,-0.00000
 032,0.00000049,-0.00000198,-0.00000108,-0.00000004,-0.00000175,-0.0000
 0016,0.00000024,0.00000140,-0.00000026,0.00000085,0.00000059,0.0000000
 3,0.00000062,0.00000004,0.00000353,0.00000657,-0.00000094,-0.00000074,
 0.00000626,0.00000225,-0.00000088,-0.00000207,0.00000299,0.00000615,0.
 00000214,-0.00000050,-0.00000190,-0.00000194,0.00000305,-0.00000223,-0
 .00001300,-0.00000108,-0.00000077,-0.00000034,-0.00000026,-0.00000076,
 -0.00000033,0.00000035,0.00000004,0.00000086,0.00000108,0.00000014,0.0
 0000061,-0.00000006,-0.00000067,0.00000119,0.00000030,-0.00000233,0.00
 000167,-0.00000202,-0.00000113,0.00000161,-0.00000049\\\@


 TRUTH, IN SCIENCE, CAN BE DEFINED AS THE WORKING HYPOTHESIS 
 BEST FITTED TO OPEN THE WAY TO THE NEXT BETTER ONE.

                              -- KONRAD LORENZ
 Job cpu time:       0 days 16 hours 53 minutes 23.5 seconds.
 Elapsed time:       0 days  1 hours  3 minutes 34.7 seconds.
 File lengths (MBytes):  RWF=   1773 Int=      0 D2E=      0 Chk=     38 Scr=      1
 Normal termination of Gaussian 16 at Mon Dec 21 21:51:28 2020.
