 Entering Gaussian System, Link 0=g16
 Input=tempoindole.gjf
 Output=tempoindole.log
 Initial command:
 /apps/g16/l1.exe "/localhome/wxy/tempoindole/Gau-115971.inp" -scrdir="/localhome/wxy/tempoindole/"
 Entering Link 1 = /apps/g16/l1.exe PID=    116040.
  
 Copyright (c) 1988,1990,1992,1993,1995,1998,2003,2009,2016,
            Gaussian, Inc.  All Rights Reserved.
  
 This is part of the Gaussian(R) 16 program.  It is based on
 the Gaussian(R) 09 system (copyright 2009, Gaussian, Inc.),
 the Gaussian(R) 03 system (copyright 2003, Gaussian, Inc.),
 the Gaussian(R) 98 system (copyright 1998, Gaussian, Inc.),
 the Gaussian(R) 94 system (copyright 1995, Gaussian, Inc.),
 the Gaussian 92(TM) system (copyright 1992, Gaussian, Inc.),
 the Gaussian 90(TM) system (copyright 1990, Gaussian, Inc.),
 the Gaussian 88(TM) system (copyright 1988, Gaussian, Inc.),
 the Gaussian 86(TM) system (copyright 1986, Carnegie Mellon
 University), and the Gaussian 82(TM) system (copyright 1983,
 Carnegie Mellon University). Gaussian is a federally registered
 trademark of Gaussian, Inc.
  
 This software contains proprietary and confidential information,
 including trade secrets, belonging to Gaussian, Inc.
  
 This software is provided under written license and may be
 used, copied, transmitted, or stored only in accord with that
 written license.
  
 The following legend is applicable only to US Government
 contracts under FAR:
  
                    RESTRICTED RIGHTS LEGEND
  
 Use, reproduction and disclosure by the US Government is
 subject to restrictions as set forth in subparagraphs (a)
 and (c) of the Commercial Computer Software - Restricted
 Rights clause in FAR 52.227-19.
  
 Gaussian, Inc.
 340 Quinnipiac St., Bldg. 40, Wallingford CT 06492
  
  
 ---------------------------------------------------------------
 Warning -- This program may not be used in any manner that
 competes with the business of Gaussian, Inc. or will provide
 assistance to any competitor of Gaussian, Inc.  The licensee
 of this program is prohibited from giving any competitor of
 Gaussian, Inc. access to this program.  By using this program,
 the user acknowledges that Gaussian, Inc. is engaged in the
 business of creating and licensing software in the field of
 computational chemistry and represents and warrants to the
 licensee that it is not a competitor of Gaussian, Inc. and that
 it will not use this program in any manner prohibited above.
 ---------------------------------------------------------------
  

 Cite this work as:
 Gaussian 16, Revision A.03,
 M. J. Frisch, G. W. Trucks, H. B. Schlegel, G. E. Scuseria, 
 M. A. Robb, J. R. Cheeseman, G. Scalmani, V. Barone, 
 G. A. Petersson, H. Nakatsuji, X. Li, M. Caricato, A. V. Marenich, 
 J. Bloino, B. G. Janesko, R. Gomperts, B. Mennucci, H. P. Hratchian, 
 J. V. Ortiz, A. F. Izmaylov, J. L. Sonnenberg, D. Williams-Young, 
 F. Ding, F. Lipparini, F. Egidi, J. Goings, B. Peng, A. Petrone, 
 T. Henderson, D. Ranasinghe, V. G. Zakrzewski, J. Gao, N. Rega, 
 G. Zheng, W. Liang, M. Hada, M. Ehara, K. Toyota, R. Fukuda, 
 J. Hasegawa, M. Ishida, T. Nakajima, Y. Honda, O. Kitao, H. Nakai, 
 T. Vreven, K. Throssell, J. A. Montgomery, Jr., J. E. Peralta, 
 F. Ogliaro, M. J. Bearpark, J. J. Heyd, E. N. Brothers, K. N. Kudin, 
 V. N. Staroverov, T. A. Keith, R. Kobayashi, J. Normand, 
 K. Raghavachari, A. P. Rendell, J. C. Burant, S. S. Iyengar, 
 J. Tomasi, M. Cossi, J. M. Millam, M. Klene, C. Adamo, R. Cammi, 
 J. W. Ochterski, R. L. Martin, K. Morokuma, O. Farkas, 
 J. B. Foresman, and D. J. Fox, Gaussian, Inc., Wallingford CT, 2016.
 
 ******************************************
 Gaussian 16:  ES64L-G16RevA.03 25-Dec-2016
                16-May-2020 
 ******************************************
 %chk=gausopt.chk
 %NProcShared=20
 Will use up to   20 processors via shared memory.
 %mem=16GB
 --------------------------------------------------------------------
 #p opt freq M062X/6-311g(d,p) scrf=(solvent=carbontetrachloride,pcm)
 --------------------------------------------------------------------
 1/18=20,19=15,26=3,38=1/1,3;
 2/9=110,12=2,17=6,18=5,40=1/2;
 3/5=4,6=6,7=101,11=2,25=1,30=1,70=2201,71=1,72=11,74=-55/1,2,3;
 4//1;
 5/5=2,38=5,53=11/2;
 6/7=2,8=2,9=2,10=2,28=1/1;
 7//1,2,3,16;
 1/18=20,19=15,26=3/3(2);
 2/9=110/2;
 99//99;
 2/9=110/2;
 3/5=4,6=6,7=101,11=2,25=1,30=1,70=2205,71=1,72=11,74=-55/1,2,3;
 4/5=5,16=3,69=1/1;
 5/5=2,38=5,53=11/2;
 7//1,2,3,16;
 1/18=20,19=15,26=3/3(-5);
 2/9=110/2;
 6/7=2,8=2,9=2,10=2,19=2,28=1/1;
 99/9=1/99;
 Leave Link    1 at Sat May 16 15:56:07 2020, MaxMem=  2147483648 cpu:               2.1 elap:               0.8
 (Enter /apps/g16/l101.exe)
 -------------------
 Title Card Required
 -------------------
 Symbolic Z-matrix:
 Charge =  0 Multiplicity = 2
 N                     1.85945  -0.82324   0.11605 
 C                     2.90818  -0.23072   0.97697 
 C                     3.11293   1.23612   0.59792 
 C                     3.36562   1.40555  -0.89713 
 C                     2.21126   0.80281  -1.69203 
 C                     1.99626  -0.67174  -1.35141 
 O                     1.21638  -1.82275   0.56694 
 C                     0.78594  -1.25003  -2.06383 
 C                     2.5416   -0.40223   2.44108 
 H                     3.9491    1.62658   1.18302 
 H                     2.2211    1.80288   0.89051 
 H                     2.39359   0.88253  -2.76642 
 H                     1.28385   1.34645  -1.47726 
 H                     0.9348   -1.15766  -3.14094 
 H                    -0.11632  -0.69773  -1.79026 
 H                     0.6418   -2.30007  -1.81658 
 H                     1.58956   0.0904    2.65327 
 H                     3.31654   0.05669   3.05732 
 H                     2.4495   -1.45288   2.70638 
 H                     3.48581   2.46234  -1.14401 
 H                     4.30074   0.90257  -1.16907 
 C                    -3.29969   0.05174   0.01072 
 C                    -1.92275  -0.10636   0.30283 
 C                    -1.06685   0.98618   0.47955 
 C                    -1.61104   2.25116   0.35599 
 C                    -2.97859   2.4321    0.06765 
 C                    -3.82191   1.35042  -0.10239 
 C                    -3.84748  -1.26926  -0.10887 
 C                    -2.8172   -2.14274   0.10314 
 H                    -0.01821   0.83575   0.70779 
 H                    -0.97638   3.11987   0.48828 
 H                    -3.37126   3.43815  -0.01913 
 H                    -4.87288   1.50031  -0.32253 
 H                    -4.87049  -1.53348  -0.32347 
 H                    -0.73077  -1.84068   0.48615 
 N                    -1.65916  -1.45076   0.35806 
 H                    -2.81495  -3.22143   0.09555 
 C                     3.25883  -1.46106  -1.7445 
 H                     3.10546  -2.5012   -1.54581 
 H                     3.456    -1.32236  -2.78699 
 H                     4.09225  -1.10803  -1.17382 
 C                     4.20512  -1.00275   0.67114 
 H                     4.83088  -1.0068    1.53907 
 H                     3.96528  -2.00957   0.39966 
 H                     4.7203   -0.5283   -0.1378 
 
 Add virtual bond connecting atoms H35        and O7         Dist= 3.68D+00.
 ITRead=  0  0  0  0  0  0  0  0  0  0  0  0  0  0  0  0  0  0  0  0
 ITRead=  0  0  0  0  0  0  0  0  0  0  0  0  0  0  0  0  0  0  0  0
 ITRead=  0  0  0  0  0
 MicOpt= -1 -1 -1 -1 -1 -1 -1 -1 -1 -1 -1 -1 -1 -1 -1 -1 -1 -1 -1 -1
 MicOpt= -1 -1 -1 -1 -1 -1 -1 -1 -1 -1 -1 -1 -1 -1 -1 -1 -1 -1 -1 -1
 MicOpt= -1 -1 -1 -1 -1
 NAtoms=     45 NQM=       45 NQMF=       0 NMMI=      0 NMMIF=      0
                NMic=       0 NMicF=      0.
                    Isotopes and Nuclear Properties:
 (Nuclear quadrupole moments (NQMom) in fm**2, nuclear magnetic moments (NMagM)
  in nuclear magnetons)

  Atom         1           2           3           4           5           6           7           8           9          10
 IAtWgt=          14          12          12          12          12          12          16          12          12           1
 AtmWgt=  14.0030740  12.0000000  12.0000000  12.0000000  12.0000000  12.0000000  15.9949146  12.0000000  12.0000000   1.0078250
 NucSpn=           2           0           0           0           0           0           0           0           0           1
 AtZEff=  -0.0000000  -0.0000000  -0.0000000  -0.0000000  -0.0000000  -0.0000000  -0.0000000  -0.0000000  -0.0000000  -0.0000000
 NQMom=    2.0440000   0.0000000   0.0000000   0.0000000   0.0000000   0.0000000   0.0000000   0.0000000   0.0000000   0.0000000
 NMagM=    0.4037610   0.0000000   0.0000000   0.0000000   0.0000000   0.0000000   0.0000000   0.0000000   0.0000000   2.7928460
 AtZNuc=   7.0000000   6.0000000   6.0000000   6.0000000   6.0000000   6.0000000   8.0000000   6.0000000   6.0000000   1.0000000

  Atom        11          12          13          14          15          16          17          18          19          20
 IAtWgt=           1           1           1           1           1           1           1           1           1           1
 AtmWgt=   1.0078250   1.0078250   1.0078250   1.0078250   1.0078250   1.0078250   1.0078250   1.0078250   1.0078250   1.0078250
 NucSpn=           1           1           1           1           1           1           1           1           1           1
 AtZEff=  -0.0000000  -0.0000000  -0.0000000  -0.0000000  -0.0000000  -0.0000000  -0.0000000  -0.0000000  -0.0000000  -0.0000000
 NQMom=    0.0000000   0.0000000   0.0000000   0.0000000   0.0000000   0.0000000   0.0000000   0.0000000   0.0000000   0.0000000
 NMagM=    2.7928460   2.7928460   2.7928460   2.7928460   2.7928460   2.7928460   2.7928460   2.7928460   2.7928460   2.7928460
 AtZNuc=   1.0000000   1.0000000   1.0000000   1.0000000   1.0000000   1.0000000   1.0000000   1.0000000   1.0000000   1.0000000

  Atom        21          22          23          24          25          26          27          28          29          30
 IAtWgt=           1          12          12          12          12          12          12          12          12           1
 AtmWgt=   1.0078250  12.0000000  12.0000000  12.0000000  12.0000000  12.0000000  12.0000000  12.0000000  12.0000000   1.0078250
 NucSpn=           1           0           0           0           0           0           0           0           0           1
 AtZEff=  -0.0000000  -0.0000000  -0.0000000  -0.0000000  -0.0000000  -0.0000000  -0.0000000  -0.0000000  -0.0000000  -0.0000000
 NQMom=    0.0000000   0.0000000   0.0000000   0.0000000   0.0000000   0.0000000   0.0000000   0.0000000   0.0000000   0.0000000
 NMagM=    2.7928460   0.0000000   0.0000000   0.0000000   0.0000000   0.0000000   0.0000000   0.0000000   0.0000000   2.7928460
 AtZNuc=   1.0000000   6.0000000   6.0000000   6.0000000   6.0000000   6.0000000   6.0000000   6.0000000   6.0000000   1.0000000

  Atom        31          32          33          34          35          36          37          38          39          40
 IAtWgt=           1           1           1           1           1          14           1          12           1           1
 AtmWgt=   1.0078250   1.0078250   1.0078250   1.0078250   1.0078250  14.0030740   1.0078250  12.0000000   1.0078250   1.0078250
 NucSpn=           1           1           1           1           1           2           1           0           1           1
 AtZEff=  -0.0000000  -0.0000000  -0.0000000  -0.0000000  -0.0000000  -0.0000000  -0.0000000  -0.0000000  -0.0000000  -0.0000000
 NQMom=    0.0000000   0.0000000   0.0000000   0.0000000   0.0000000   2.0440000   0.0000000   0.0000000   0.0000000   0.0000000
 NMagM=    2.7928460   2.7928460   2.7928460   2.7928460   2.7928460   0.4037610   2.7928460   0.0000000   2.7928460   2.7928460
 AtZNuc=   1.0000000   1.0000000   1.0000000   1.0000000   1.0000000   7.0000000   1.0000000   6.0000000   1.0000000   1.0000000

  Atom        41          42          43          44          45
 IAtWgt=           1          12           1           1           1
 AtmWgt=   1.0078250  12.0000000   1.0078250   1.0078250   1.0078250
 NucSpn=           1           0           1           1           1
 AtZEff=  -0.0000000  -0.0000000  -0.0000000  -0.0000000  -0.0000000
 NQMom=    0.0000000   0.0000000   0.0000000   0.0000000   0.0000000
 NMagM=    2.7928460   0.0000000   2.7928460   2.7928460   2.7928460
 AtZNuc=   1.0000000   6.0000000   1.0000000   1.0000000   1.0000000
 Leave Link  101 at Sat May 16 15:56:12 2020, MaxMem=  2147483648 cpu:               9.5 elap:               0.5
 (Enter /apps/g16/l103.exe)

 GradGradGradGradGradGradGradGradGradGradGradGradGradGradGradGradGradGrad
 Berny optimization.
 Initialization pass.
                           ----------------------------
                           !    Initial Parameters    !
                           ! (Angstroms and Degrees)  !
 --------------------------                            --------------------------
 ! Name  Definition              Value          Derivative Info.                !
 --------------------------------------------------------------------------------
 ! R1    R(1,2)                  1.4806         estimate D2E/DX2                !
 ! R2    R(1,6)                  1.4816         estimate D2E/DX2                !
 ! R3    R(1,7)                  1.2712         estimate D2E/DX2                !
 ! R4    R(2,3)                  1.5288         estimate D2E/DX2                !
 ! R5    R(2,9)                  1.519          estimate D2E/DX2                !
 ! R6    R(2,42)                 1.54           estimate D2E/DX2                !
 ! R7    R(3,4)                  1.5257         estimate D2E/DX2                !
 ! R8    R(3,10)                 1.0927         estimate D2E/DX2                !
 ! R9    R(3,11)                 1.0964         estimate D2E/DX2                !
 ! R10   R(4,5)                  1.5257         estimate D2E/DX2                !
 ! R11   R(4,20)                 1.0919         estimate D2E/DX2                !
 ! R12   R(4,21)                 1.0961         estimate D2E/DX2                !
 ! R13   R(5,6)                  1.5286         estimate D2E/DX2                !
 ! R14   R(5,12)                 1.0927         estimate D2E/DX2                !
 ! R15   R(5,13)                 1.0962         estimate D2E/DX2                !
 ! R16   R(6,8)                  1.5188         estimate D2E/DX2                !
 ! R17   R(6,38)                 1.54           estimate D2E/DX2                !
 ! R18   R(7,35)                 1.9489         estimate D2E/DX2                !
 ! R19   R(8,14)                 1.0913         estimate D2E/DX2                !
 ! R20   R(8,15)                 1.0927         estimate D2E/DX2                !
 ! R21   R(8,16)                 1.0883         estimate D2E/DX2                !
 ! R22   R(9,17)                 1.0927         estimate D2E/DX2                !
 ! R23   R(9,18)                 1.0913         estimate D2E/DX2                !
 ! R24   R(9,19)                 1.0875         estimate D2E/DX2                !
 ! R25   R(22,23)                1.4164         estimate D2E/DX2                !
 ! R26   R(22,27)                1.4043         estimate D2E/DX2                !
 ! R27   R(22,28)                1.4351         estimate D2E/DX2                !
 ! R28   R(23,24)                1.3991         estimate D2E/DX2                !
 ! R29   R(23,36)                1.3711         estimate D2E/DX2                !
 ! R30   R(24,25)                1.3826         estimate D2E/DX2                !
 ! R31   R(24,30)                1.0837         estimate D2E/DX2                !
 ! R32   R(25,26)                1.4093         estimate D2E/DX2                !
 ! R33   R(25,31)                1.084          estimate D2E/DX2                !
 ! R34   R(26,27)                1.3821         estimate D2E/DX2                !
 ! R35   R(26,32)                1.0834         estimate D2E/DX2                !
 ! R36   R(27,33)                1.0842         estimate D2E/DX2                !
 ! R37   R(28,29)                1.3673         estimate D2E/DX2                !
 ! R38   R(28,34)                1.0782         estimate D2E/DX2                !
 ! R39   R(29,36)                1.3729         estimate D2E/DX2                !
 ! R40   R(29,37)                1.0787         estimate D2E/DX2                !
 ! R41   R(35,36)                1.0151         estimate D2E/DX2                !
 ! R42   R(38,39)                1.07           estimate D2E/DX2                !
 ! R43   R(38,40)                1.07           estimate D2E/DX2                !
 ! R44   R(38,41)                1.07           estimate D2E/DX2                !
 ! R45   R(42,43)                1.07           estimate D2E/DX2                !
 ! R46   R(42,44)                1.07           estimate D2E/DX2                !
 ! R47   R(42,45)                1.07           estimate D2E/DX2                !
 ! A1    A(2,1,6)              118.0081         estimate D2E/DX2                !
 ! A2    A(2,1,7)              117.8242         estimate D2E/DX2                !
 ! A3    A(6,1,7)              118.5834         estimate D2E/DX2                !
 ! A4    A(1,2,3)              109.5525         estimate D2E/DX2                !
 ! A5    A(1,2,9)              110.1407         estimate D2E/DX2                !
 ! A6    A(1,2,42)             106.2858         estimate D2E/DX2                !
 ! A7    A(3,2,9)              112.3107         estimate D2E/DX2                !
 ! A8    A(3,2,42)             108.6011         estimate D2E/DX2                !
 ! A9    A(9,2,42)             109.7581         estimate D2E/DX2                !
 ! A10   A(2,3,4)              111.8204         estimate D2E/DX2                !
 ! A11   A(2,3,10)             108.2145         estimate D2E/DX2                !
 ! A12   A(2,3,11)             108.7156         estimate D2E/DX2                !
 ! A13   A(4,3,10)             110.9944         estimate D2E/DX2                !
 ! A14   A(4,3,11)             109.8041         estimate D2E/DX2                !
 ! A15   A(10,3,11)            107.1473         estimate D2E/DX2                !
 ! A16   A(3,4,5)              109.9596         estimate D2E/DX2                !
 ! A17   A(3,4,20)             110.3214         estimate D2E/DX2                !
 ! A18   A(3,4,21)             109.4792         estimate D2E/DX2                !
 ! A19   A(5,4,20)             110.3555         estimate D2E/DX2                !
 ! A20   A(5,4,21)             109.5694         estimate D2E/DX2                !
 ! A21   A(20,4,21)            107.106          estimate D2E/DX2                !
 ! A22   A(4,5,6)              111.8031         estimate D2E/DX2                !
 ! A23   A(4,5,12)             110.9296         estimate D2E/DX2                !
 ! A24   A(4,5,13)             110.0048         estimate D2E/DX2                !
 ! A25   A(6,5,12)             108.2375         estimate D2E/DX2                !
 ! A26   A(6,5,13)             108.4055         estimate D2E/DX2                !
 ! A27   A(12,5,13)            107.3151         estimate D2E/DX2                !
 ! A28   A(1,6,5)              109.4107         estimate D2E/DX2                !
 ! A29   A(1,6,8)              110.6139         estimate D2E/DX2                !
 ! A30   A(1,6,38)             106.0285         estimate D2E/DX2                !
 ! A31   A(5,6,8)              112.0146         estimate D2E/DX2                !
 ! A32   A(5,6,38)             108.7982         estimate D2E/DX2                !
 ! A33   A(8,6,38)             109.7821         estimate D2E/DX2                !
 ! A34   A(1,7,35)             119.8653         estimate D2E/DX2                !
 ! A35   A(6,8,14)             108.7867         estimate D2E/DX2                !
 ! A36   A(6,8,15)             110.3726         estimate D2E/DX2                !
 ! A37   A(6,8,16)             111.4884         estimate D2E/DX2                !
 ! A38   A(14,8,15)            108.4805         estimate D2E/DX2                !
 ! A39   A(14,8,16)            108.9031         estimate D2E/DX2                !
 ! A40   A(15,8,16)            108.749          estimate D2E/DX2                !
 ! A41   A(2,9,17)             110.2743         estimate D2E/DX2                !
 ! A42   A(2,9,18)             108.9912         estimate D2E/DX2                !
 ! A43   A(2,9,19)             111.3855         estimate D2E/DX2                !
 ! A44   A(17,9,18)            108.6296         estimate D2E/DX2                !
 ! A45   A(17,9,19)            108.3238         estimate D2E/DX2                !
 ! A46   A(18,9,19)            109.187          estimate D2E/DX2                !
 ! A47   A(23,22,27)           118.7726         estimate D2E/DX2                !
 ! A48   A(23,22,28)           106.5895         estimate D2E/DX2                !
 ! A49   A(27,22,28)           134.6373         estimate D2E/DX2                !
 ! A50   A(22,23,24)           122.2482         estimate D2E/DX2                !
 ! A51   A(22,23,36)           107.7365         estimate D2E/DX2                !
 ! A52   A(24,23,36)           130.0146         estimate D2E/DX2                !
 ! A53   A(23,24,25)           117.5413         estimate D2E/DX2                !
 ! A54   A(23,24,30)           120.6762         estimate D2E/DX2                !
 ! A55   A(25,24,30)           121.7822         estimate D2E/DX2                !
 ! A56   A(24,25,26)           121.1779         estimate D2E/DX2                !
 ! A57   A(24,25,31)           119.4647         estimate D2E/DX2                !
 ! A58   A(26,25,31)           119.3566         estimate D2E/DX2                !
 ! A59   A(25,26,27)           121.1179         estimate D2E/DX2                !
 ! A60   A(25,26,32)           119.1633         estimate D2E/DX2                !
 ! A61   A(27,26,32)           119.7187         estimate D2E/DX2                !
 ! A62   A(22,27,26)           119.1411         estimate D2E/DX2                !
 ! A63   A(22,27,33)           120.3105         estimate D2E/DX2                !
 ! A64   A(26,27,33)           120.5482         estimate D2E/DX2                !
 ! A65   A(22,28,29)           106.7095         estimate D2E/DX2                !
 ! A66   A(22,28,34)           127.1832         estimate D2E/DX2                !
 ! A67   A(29,28,34)           126.1072         estimate D2E/DX2                !
 ! A68   A(28,29,36)           110.0227         estimate D2E/DX2                !
 ! A69   A(28,29,37)           129.7415         estimate D2E/DX2                !
 ! A70   A(36,29,37)           120.2355         estimate D2E/DX2                !
 ! A71   A(7,35,36)            156.2748         estimate D2E/DX2                !
 ! A72   A(23,36,29)           108.9393         estimate D2E/DX2                !
 ! A73   A(23,36,35)           123.8878         estimate D2E/DX2                !
 ! A74   A(29,36,35)           126.962          estimate D2E/DX2                !
 ! A75   A(6,38,39)            109.4712         estimate D2E/DX2                !
 ! A76   A(6,38,40)            109.4712         estimate D2E/DX2                !
 ! A77   A(6,38,41)            109.4712         estimate D2E/DX2                !
 ! A78   A(39,38,40)           109.4713         estimate D2E/DX2                !
 ! A79   A(39,38,41)           109.4712         estimate D2E/DX2                !
 ! A80   A(40,38,41)           109.4712         estimate D2E/DX2                !
 ! A81   A(2,42,43)            109.4712         estimate D2E/DX2                !
 ! A82   A(2,42,44)            109.4712         estimate D2E/DX2                !
 ! A83   A(2,42,45)            109.4712         estimate D2E/DX2                !
 ! A84   A(43,42,44)           109.4713         estimate D2E/DX2                !
 ! A85   A(43,42,45)           109.4712         estimate D2E/DX2                !
 ! A86   A(44,42,45)           109.4712         estimate D2E/DX2                !
 ! D1    D(6,1,2,3)             51.9124         estimate D2E/DX2                !
 ! D2    D(6,1,2,9)            175.9234         estimate D2E/DX2                !
 ! D3    D(6,1,2,42)           -65.2429         estimate D2E/DX2                !
 ! D4    D(7,1,2,3)           -154.7751         estimate D2E/DX2                !
 ! D5    D(7,1,2,9)            -30.7641         estimate D2E/DX2                !
 ! D6    D(7,1,2,42)            88.0695         estimate D2E/DX2                !
 ! D7    D(2,1,6,5)            -52.0426         estimate D2E/DX2                !
 ! D8    D(2,1,6,8)           -175.9024         estimate D2E/DX2                !
 ! D9    D(2,1,6,38)            65.132          estimate D2E/DX2                !
 ! D10   D(7,1,6,5)            154.8505         estimate D2E/DX2                !
 ! D11   D(7,1,6,8)             30.9907         estimate D2E/DX2                !
 ! D12   D(7,1,6,38)           -87.9749         estimate D2E/DX2                !
 ! D13   D(2,1,7,35)           130.9892         estimate D2E/DX2                !
 ! D14   D(6,1,7,35)           -75.8546         estimate D2E/DX2                !
 ! D15   D(1,2,3,4)            -52.5106         estimate D2E/DX2                !
 ! D16   D(1,2,3,10)          -175.0608         estimate D2E/DX2                !
 ! D17   D(1,2,3,11)            68.8868         estimate D2E/DX2                !
 ! D18   D(9,2,3,4)           -175.242          estimate D2E/DX2                !
 ! D19   D(9,2,3,10)            62.2078         estimate D2E/DX2                !
 ! D20   D(9,2,3,11)           -53.8446         estimate D2E/DX2                !
 ! D21   D(42,2,3,4)            63.1805         estimate D2E/DX2                !
 ! D22   D(42,2,3,10)          -59.3697         estimate D2E/DX2                !
 ! D23   D(42,2,3,11)         -175.422          estimate D2E/DX2                !
 ! D24   D(1,2,9,17)           -59.7918         estimate D2E/DX2                !
 ! D25   D(1,2,9,18)          -178.9539         estimate D2E/DX2                !
 ! D26   D(1,2,9,19)            60.5125         estimate D2E/DX2                !
 ! D27   D(3,2,9,17)            62.6071         estimate D2E/DX2                !
 ! D28   D(3,2,9,18)           -56.555          estimate D2E/DX2                !
 ! D29   D(3,2,9,19)          -177.0886         estimate D2E/DX2                !
 ! D30   D(42,2,9,17)         -176.4787         estimate D2E/DX2                !
 ! D31   D(42,2,9,18)           64.3591         estimate D2E/DX2                !
 ! D32   D(42,2,9,19)          -56.1745         estimate D2E/DX2                !
 ! D33   D(1,2,42,43)         -150.923          estimate D2E/DX2                !
 ! D34   D(1,2,42,44)          -30.923          estimate D2E/DX2                !
 ! D35   D(1,2,42,45)           89.077          estimate D2E/DX2                !
 ! D36   D(3,2,42,43)           91.2889         estimate D2E/DX2                !
 ! D37   D(3,2,42,44)         -148.7111         estimate D2E/DX2                !
 ! D38   D(3,2,42,45)          -28.7111         estimate D2E/DX2                !
 ! D39   D(9,2,42,43)          -31.8384         estimate D2E/DX2                !
 ! D40   D(9,2,42,44)           88.1616         estimate D2E/DX2                !
 ! D41   D(9,2,42,45)         -151.8384         estimate D2E/DX2                !
 ! D42   D(2,3,4,5)             56.7777         estimate D2E/DX2                !
 ! D43   D(2,3,4,20)           178.7244         estimate D2E/DX2                !
 ! D44   D(2,3,4,21)           -63.6497         estimate D2E/DX2                !
 ! D45   D(10,3,4,5)           177.7276         estimate D2E/DX2                !
 ! D46   D(10,3,4,20)          -60.3256         estimate D2E/DX2                !
 ! D47   D(10,3,4,21)           57.3003         estimate D2E/DX2                !
 ! D48   D(11,3,4,5)           -63.9888         estimate D2E/DX2                !
 ! D49   D(11,3,4,20)           57.9579         estimate D2E/DX2                !
 ! D50   D(11,3,4,21)          175.5838         estimate D2E/DX2                !
 ! D51   D(3,4,5,6)            -56.979          estimate D2E/DX2                !
 ! D52   D(3,4,5,12)          -177.9013         estimate D2E/DX2                !
 ! D53   D(3,4,5,13)            63.5211         estimate D2E/DX2                !
 ! D54   D(20,4,5,6)          -178.9055         estimate D2E/DX2                !
 ! D55   D(20,4,5,12)           60.1723         estimate D2E/DX2                !
 ! D56   D(20,4,5,13)          -58.4054         estimate D2E/DX2                !
 ! D57   D(21,4,5,6)            63.3938         estimate D2E/DX2                !
 ! D58   D(21,4,5,12)          -57.5284         estimate D2E/DX2                !
 ! D59   D(21,4,5,13)         -176.1061         estimate D2E/DX2                !
 ! D60   D(4,5,6,1)             52.8188         estimate D2E/DX2                !
 ! D61   D(4,5,6,8)            175.8512         estimate D2E/DX2                !
 ! D62   D(4,5,6,38)           -62.5976         estimate D2E/DX2                !
 ! D63   D(12,5,6,1)           175.292          estimate D2E/DX2                !
 ! D64   D(12,5,6,8)           -61.6755         estimate D2E/DX2                !
 ! D65   D(12,5,6,38)           59.8756         estimate D2E/DX2                !
 ! D66   D(13,5,6,1)           -68.6099         estimate D2E/DX2                !
 ! D67   D(13,5,6,8)            54.4225         estimate D2E/DX2                !
 ! D68   D(13,5,6,38)          175.9737         estimate D2E/DX2                !
 ! D69   D(1,6,8,14)          -177.8505         estimate D2E/DX2                !
 ! D70   D(1,6,8,15)            63.2363         estimate D2E/DX2                !
 ! D71   D(1,6,8,16)           -57.7394         estimate D2E/DX2                !
 ! D72   D(5,6,8,14)            59.7999         estimate D2E/DX2                !
 ! D73   D(5,6,8,15)           -59.1132         estimate D2E/DX2                !
 ! D74   D(5,6,8,16)           179.911          estimate D2E/DX2                !
 ! D75   D(38,6,8,14)          -61.1842         estimate D2E/DX2                !
 ! D76   D(38,6,8,15)          179.9027         estimate D2E/DX2                !
 ! D77   D(38,6,8,16)           58.9269         estimate D2E/DX2                !
 ! D78   D(1,6,38,39)           64.6061         estimate D2E/DX2                !
 ! D79   D(1,6,38,40)         -175.3939         estimate D2E/DX2                !
 ! D80   D(1,6,38,41)          -55.3939         estimate D2E/DX2                !
 ! D81   D(5,6,38,39)         -177.8096         estimate D2E/DX2                !
 ! D82   D(5,6,38,40)          -57.8096         estimate D2E/DX2                !
 ! D83   D(5,6,38,41)           62.1904         estimate D2E/DX2                !
 ! D84   D(8,6,38,39)          -54.9062         estimate D2E/DX2                !
 ! D85   D(8,6,38,40)           65.0938         estimate D2E/DX2                !
 ! D86   D(8,6,38,41)         -174.9062         estimate D2E/DX2                !
 ! D87   D(1,7,35,36)          -12.9911         estimate D2E/DX2                !
 ! D88   D(27,22,23,24)         -0.1239         estimate D2E/DX2                !
 ! D89   D(27,22,23,36)       -179.8645         estimate D2E/DX2                !
 ! D90   D(28,22,23,24)        179.6323         estimate D2E/DX2                !
 ! D91   D(28,22,23,36)         -0.1083         estimate D2E/DX2                !
 ! D92   D(23,22,27,26)          0.3086         estimate D2E/DX2                !
 ! D93   D(23,22,27,33)       -179.8281         estimate D2E/DX2                !
 ! D94   D(28,22,27,26)       -179.363          estimate D2E/DX2                !
 ! D95   D(28,22,27,33)          0.5003         estimate D2E/DX2                !
 ! D96   D(23,22,28,29)         -0.2016         estimate D2E/DX2                !
 ! D97   D(23,22,28,34)        179.7808         estimate D2E/DX2                !
 ! D98   D(27,22,28,29)        179.498          estimate D2E/DX2                !
 ! D99   D(27,22,28,34)         -0.5196         estimate D2E/DX2                !
 ! D100  D(22,23,24,25)         -0.1468         estimate D2E/DX2                !
 ! D101  D(22,23,24,30)        179.66           estimate D2E/DX2                !
 ! D102  D(36,23,24,25)        179.5306         estimate D2E/DX2                !
 ! D103  D(36,23,24,30)         -0.6626         estimate D2E/DX2                !
 ! D104  D(22,23,36,29)          0.3806         estimate D2E/DX2                !
 ! D105  D(22,23,36,35)        175.4245         estimate D2E/DX2                !
 ! D106  D(24,23,36,29)       -179.3329         estimate D2E/DX2                !
 ! D107  D(24,23,36,35)         -4.2891         estimate D2E/DX2                !
 ! D108  D(23,24,25,26)          0.2337         estimate D2E/DX2                !
 ! D109  D(23,24,25,31)        179.906          estimate D2E/DX2                !
 ! D110  D(30,24,25,26)       -179.5708         estimate D2E/DX2                !
 ! D111  D(30,24,25,31)          0.1015         estimate D2E/DX2                !
 ! D112  D(24,25,26,27)         -0.0499         estimate D2E/DX2                !
 ! D113  D(24,25,26,32)        179.8184         estimate D2E/DX2                !
 ! D114  D(31,25,26,27)       -179.7226         estimate D2E/DX2                !
 ! D115  D(31,25,26,32)          0.1457         estimate D2E/DX2                !
 ! D116  D(25,26,27,22)         -0.2284         estimate D2E/DX2                !
 ! D117  D(25,26,27,33)        179.9086         estimate D2E/DX2                !
 ! D118  D(32,26,27,22)        179.904          estimate D2E/DX2                !
 ! D119  D(32,26,27,33)          0.0411         estimate D2E/DX2                !
 ! D120  D(22,28,29,36)          0.4427         estimate D2E/DX2                !
 ! D121  D(22,28,29,37)       -179.7353         estimate D2E/DX2                !
 ! D122  D(34,28,29,36)       -179.5399         estimate D2E/DX2                !
 ! D123  D(34,28,29,37)          0.2821         estimate D2E/DX2                !
 ! D124  D(28,29,36,23)         -0.5236         estimate D2E/DX2                !
 ! D125  D(28,29,36,35)       -175.374          estimate D2E/DX2                !
 ! D126  D(37,29,36,23)        179.6348         estimate D2E/DX2                !
 ! D127  D(37,29,36,35)          4.7844         estimate D2E/DX2                !
 ! D128  D(7,35,36,23)         -12.7878         estimate D2E/DX2                !
 ! D129  D(7,35,36,29)         161.3424         estimate D2E/DX2                !
 --------------------------------------------------------------------------------
 Trust Radius=3.00D-01 FncErr=1.00D-07 GrdErr=1.00D-06 EigMax=2.50D+02 EigMin=1.00D-04
 Number of steps in this run=    270 maximum allowed number of steps=    270.
 GradGradGradGradGradGradGradGradGradGradGradGradGradGradGradGradGradGrad

 Leave Link  103 at Sat May 16 15:56:17 2020, MaxMem=  2147483648 cpu:               0.8 elap:               0.1
 (Enter /apps/g16/l202.exe)
                          Input orientation:                          
 ---------------------------------------------------------------------
 Center     Atomic      Atomic             Coordinates (Angstroms)
 Number     Number       Type             X           Y           Z
 ---------------------------------------------------------------------
      1          7           0        1.859448   -0.823244    0.116055
      2          6           0        2.908184   -0.230721    0.976970
      3          6           0        3.112926    1.236116    0.597919
      4          6           0        3.365621    1.405554   -0.897128
      5          6           0        2.211258    0.802814   -1.692029
      6          6           0        1.996263   -0.671744   -1.351408
      7          8           0        1.216384   -1.822750    0.566937
      8          6           0        0.785937   -1.250025   -2.063833
      9          6           0        2.541597   -0.402228    2.441082
     10          1           0        3.949103    1.626576    1.183017
     11          1           0        2.221100    1.802884    0.890510
     12          1           0        2.393589    0.882532   -2.766415
     13          1           0        1.283851    1.346454   -1.477259
     14          1           0        0.934797   -1.157656   -3.140939
     15          1           0       -0.116325   -0.697731   -1.790255
     16          1           0        0.641803   -2.300066   -1.816579
     17          1           0        1.589564    0.090403    2.653268
     18          1           0        3.316542    0.056694    3.057320
     19          1           0        2.449502   -1.452879    2.706382
     20          1           0        3.485807    2.462339   -1.144009
     21          1           0        4.300745    0.902565   -1.169075
     22          6           0       -3.299690    0.051738    0.010721
     23          6           0       -1.922753   -0.106361    0.302830
     24          6           0       -1.066850    0.986178    0.479552
     25          6           0       -1.611039    2.251161    0.355994
     26          6           0       -2.978593    2.432103    0.067651
     27          6           0       -3.821912    1.350422   -0.102394
     28          6           0       -3.847477   -1.269264   -0.108872
     29          6           0       -2.817204   -2.142744    0.103138
     30          1           0       -0.018206    0.835754    0.707792
     31          1           0       -0.976377    3.119868    0.488285
     32          1           0       -3.371260    3.438153   -0.019128
     33          1           0       -4.872876    1.500314   -0.322535
     34          1           0       -4.870494   -1.533484   -0.323473
     35          1           0       -0.730767   -1.840677    0.486150
     36          7           0       -1.659157   -1.450756    0.358062
     37          1           0       -2.814947   -3.221428    0.095545
     38          6           0        3.258826   -1.461058   -1.744496
     39          1           0        3.105461   -2.501203   -1.545806
     40          1           0        3.456003   -1.322365   -2.786986
     41          1           0        4.092248   -1.108026   -1.173816
     42          6           0        4.205117   -1.002752    0.671140
     43          1           0        4.830884   -1.006802    1.539068
     44          1           0        3.965279   -2.009567    0.399657
     45          1           0        4.720303   -0.528301   -0.137796
 ---------------------------------------------------------------------
                    Distance matrix (angstroms):
                    1          2          3          4          5
     1  N    0.000000
     2  C    1.480576   0.000000
     3  C    2.458528   1.528793   0.000000
     4  C    2.874480   2.529602   1.525690   0.000000
     5  C    2.457032   2.945752   2.498924   1.525686   0.000000
     6  C    1.481593   2.539182   2.947328   2.529166   1.528584
     7  O    1.271156   2.358997   3.599235   4.145437   3.603649
     8  C    2.467079   3.845698   4.322117   3.881761   2.526643
     9  C    2.459336   1.519021   2.531370   3.884680   4.317854
    10  H    3.392150   2.139047   1.092699   2.171706   3.458986
    11  H    2.761724   2.148280   1.096444   2.159502   2.769430
    12  H    3.391697   3.939171   3.458499   2.170860   1.092659
    13  H    2.752735   3.339038   2.768403   2.161901   1.096246
    14  H    3.402179   4.659467   4.945043   4.184930   2.751751
    15  H    2.748354   4.125928   4.457713   4.164785   2.771088
    16  H    2.720062   4.150010   4.943767   4.690010   3.479449
    17  H    2.710173   2.156815   2.803167   4.182022   4.446981
    18  H    3.398302   2.139444   2.735168   4.178456   4.933018
    19  H    2.730274   2.166778   3.480867   4.689904   4.948832
    20  H    3.876578   3.476316   2.162633   1.091874   2.163059
    21  H    3.254213   2.798048   2.155096   1.096088   2.156243
    22  C    5.233870   6.288968   6.547457   6.861733   5.816702
    23  C    3.854069   4.879331   5.219902   5.629626   4.679328
    24  C    3.459676   4.186784   4.188915   4.660249   3.936417
    25  C    4.642609   5.193142   4.837840   5.201204   4.571878
    26  C    5.831489   6.524694   6.230423   6.498743   5.717133
    27  C    6.086903   6.997087   6.971046   7.231547   6.263063
    28  C    5.728745   6.920736   7.431265   7.733356   6.596073
    29  C    4.859251   6.099137   6.843094   7.198491   6.097899
    30  H    2.574492   3.126273   3.158536   3.788235   3.275780
    31  H    4.871200   5.153161   4.503658   4.869414   4.503723
    32  H    6.748191   7.340590   6.875637   7.091397   6.395946
    33  H    7.135507   8.076514   8.043013   8.259054   7.248929
    34  H    6.781574   7.993508   8.500273   8.763597   7.581719
    35  H    2.807375   4.009342   4.924746   5.406651   4.515310
    36  N    3.582307   4.767823   5.481751   5.914593   4.925604
    37  H    5.253730   6.517321   7.433825   7.784202   6.682267
    38  C    2.413859   3.007167   3.575324   2.991138   2.495049
    39  H    2.670183   3.399766   4.308499   3.968781   3.426005
    40  H    3.350486   3.957165   4.256890   3.319830   2.695312
    41  H    2.594275   2.607211   3.097276   2.631089   2.730930
    42  C    2.417127   1.540000   2.492142   2.994020   3.580519
    43  H    3.299711   2.148263   2.977888   3.728472   4.536203
    44  H    2.433581   2.148263   3.361587   3.701930   3.919340
    45  H    2.887200   2.148263   2.497620   2.480230   3.237717
                    6          7          8          9         10
     6  C    0.000000
     7  O    2.369192   0.000000
     8  C    1.518831   2.726582   0.000000
     9  C    3.840965   2.699350   4.908702   0.000000
    10  H    3.939438   4.443552   5.368658   2.771254   0.000000
    11  H    3.346719   3.776159   4.484204   2.714684   1.761432
    12  H    2.139132   4.451471   2.761515   5.365682   4.309437
    13  H    2.143944   3.771889   2.708079   4.471377   3.776123
    14  H    2.136643   3.777564   1.091261   5.857597   5.961089
    15  H    2.157844   2.932258   1.092680   5.005605   5.547113
    16  H    2.168497   2.497823   1.088345   5.033754   5.945951
    17  H    4.096791   2.855205   4.969266   1.092737   3.176301
    18  H    4.659468   3.760981   5.859837   1.091283   2.525406
    19  H    4.157073   2.496920   5.056041   1.087535   3.748665
    20  H    3.476238   5.141945   4.681562   4.685099   2.515590
    21  H    2.796843   4.467030   4.217595   4.222596   2.485997
    22  C    5.515971   4.921180   4.763477   6.342978   7.509953
    23  C    4.291252   3.587468   3.774396   4.958838   6.185183
    24  C    3.934944   3.620894   3.860341   4.335453   5.105366
    25  C    4.946840   4.963423   4.884605   5.350929   5.655905
    26  C    6.032975   5.995907   5.680931   6.643726   7.062995
    27  C    6.284930   5.991782   5.642857   7.073562   7.881448
    28  C    6.004184   5.138653   5.028993   6.933562   8.416742
    29  C    5.239180   4.072755   4.298295   6.100174   7.820283
    30  H    3.251298   2.934569   3.560762   3.330087   4.073178
    31  H    5.157264   5.407759   5.358640   5.347402   5.193547
    32  H    6.890321   7.004788   6.591064   7.467465   7.636405
    33  H    7.277464   6.993783   6.528296   8.138282   8.950416
    34  H    6.996542   6.158457   5.924899   7.991345   9.488983
    35  H    3.489945   1.948909   3.025174   4.074219   5.865889
    36  N    4.109896   2.907017   3.447370   4.804656   6.450048
    37  H    5.634031   4.293035   4.638503   6.491687   8.392742
    38  C    1.540000   3.105658   2.502337   4.376597   4.310487
    39  H    2.148263   2.914205   2.685887   4.540806   5.019638
    40  H    2.148263   4.063874   2.767207   5.386602   4.969942
    41  H    2.148263   3.436807   3.426950   3.996268   3.612921
    42  C    3.013188   3.100931   4.385432   2.502124   2.690897
    43  H    4.062289   3.830851   5.422329   2.533767   2.799819
    44  H    2.955169   2.760308   4.093153   2.962739   3.719603
    45  H    2.985603   3.801275   4.439565   3.378353   2.642497
                   11         12         13         14         15
    11  H    0.000000
    12  H    3.774904   0.000000
    13  H    2.587101   1.763141   0.000000
    14  H    5.164489   2.535883   3.026589   0.000000
    15  H    4.347773   3.122465   2.497429   1.772212   0.000000
    16  H    5.163013   3.754979   3.718128   1.773380   1.772830
    17  H    2.537468   5.535963   4.328092   5.963154   4.824532
    18  H    2.990693   5.953969   5.133977   6.750242   5.987714
    19  H    3.734910   5.950527   5.166997   6.047533   5.231965
    20  H    2.484679   2.514147   2.490957   4.857957   4.835187
    21  H    3.062252   2.487799   3.064909   4.411617   4.738915
    22  C    5.858298   6.388750   4.989912   5.415393   3.733501
    23  C    4.600228   5.387855   3.944832   4.596778   2.827350
    24  C    3.412698   4.745702   3.079724   4.659461   2.981790
    25  C    3.895119   5.259243   3.543967   5.507255   3.941640
    26  C    5.301869   6.268448   4.661953   6.204518   4.630363
    27  C    6.140730   6.778523   5.287635   6.176528   4.557980
    28  C    6.874917   7.116436   5.919881   5.663571   4.132215
    29  C    6.447669   6.673754   5.611667   5.056872   3.601076
    30  H    2.446061   4.229545   2.594342   4.437863   2.932822
    31  H    3.481392   5.191860   3.480946   5.926302   4.528299
    32  H    5.897121   6.878392   5.307674   7.029175   5.553110
    33  H    7.203299   7.691275   6.265967   6.981209   5.441543
    34  H    7.930688   8.035671   6.892114   6.463805   5.045004
    35  H    4.706651   5.268458   4.251055   4.049247   2.620284
    36  N    5.091765   5.624175   4.455793   4.365493   2.750027
    37  H    7.158034   7.222337   6.335567   5.366058   4.148235
    38  C    4.321279   2.699142   3.442974   2.728226   3.460694
    39  H    5.024231   3.666921   4.257632   3.010208   3.700293
    40  H    4.981580   2.447594   3.681878   2.551253   3.761006
    41  H    4.029396   3.063354   3.742145   3.720421   4.273222
    42  C    3.443260   4.318879   4.320670   5.025031   4.982606
    43  H    3.889207   5.295958   5.217038   6.091364   5.971163
    44  H    4.221123   4.567106   4.687830   4.737657   4.814158
    45  H    3.569013   3.783343   4.137399   4.872885   5.113931
                   16         17         18         19         20
    16  H    0.000000
    17  H    5.156755   0.000000
    18  H    6.038496   1.773935   0.000000
    19  H    4.943953   1.767494   1.775873   0.000000
    20  H    5.587594   4.862214   4.844269   5.588235   0.000000
    21  H    4.905503   4.756092   4.421150   4.898406   1.760013
    22  C    4.940179   5.557820   7.283977   6.525617   7.292967
    23  C    3.985120   4.230797   5.921487   5.167861   6.159877
    24  C    4.357879   3.547392   5.169425   4.824158   5.053878
    25  C    5.523498   4.493351   6.032736   5.977644   5.317184
    26  C    6.249081   5.747785   7.362705   7.177758   6.577044
    27  C    6.015749   6.202047   7.912967   7.421479   7.464856
    28  C    4.912479   6.248163   7.943936   6.900096   8.292975
    29  C    3.959140   5.559650   7.154548   5.915318   7.905069
    30  H    4.079390   2.631606   4.153043   3.914305   4.284046
    31  H    6.107911   4.522042   5.866185   6.129161   4.796646
    32  H    7.229291   6.554305   8.100957   8.076625   7.016904
    33  H    6.861977   7.253026   8.976303   8.456530   8.453868
    34  H    5.762155   7.295914   8.999222   7.922681   9.298799
    35  H    2.719843   3.716101   5.156708   3.897939   6.241223
    36  N    3.277927   4.265833   5.857985   4.732409   6.636203
    37  H    4.056383   6.075351   7.557338   6.136666   8.575617
    38  C    2.749171   4.953160   5.036302   4.523868   3.975569
    39  H    2.486642   5.162033   5.270309   4.428359   4.994282
    40  H    3.133259   5.922488   6.006427   5.586337   4.126044
    41  H    3.706707   4.727179   4.456546   4.227702   3.621625
    42  C    4.535303   3.459036   2.757870   2.725253   3.977315
    43  H    5.520987   3.598812   2.393604   2.689346   4.587273
    44  H    4.005195   3.890071   3.428333   2.815752   4.755075
    45  H    4.753065   4.239618   3.538578   3.755094   3.388269
                   21         22         23         24         25
    21  H    0.000000
    22  C    7.738374   0.000000
    23  C    6.474284   1.416432   0.000000
    24  C    5.615695   2.465473   1.399086   0.000000
    25  C    6.252498   2.794318   2.378634   1.382603   0.000000
    26  C    7.540407   2.402599   2.759331   2.432103   1.409285
    27  C    8.204629   1.404311   2.427597   2.839313   2.430927
    28  C    8.499082   1.435068   2.286134   3.628382   4.196564
    29  C    7.845867   2.248797   2.233109   3.604938   4.563460
    30  H    4.709610   3.445102   2.163070   1.083686   2.159689
    31  H    5.959134   3.878050   3.367280   2.135625   1.083951
    32  H    8.161571   3.387303   3.842578   3.401642   2.155932
    33  H    9.231969   2.164335   3.416974   3.923457   3.415223
    34  H    9.526857   2.256555   3.334384   4.632630   5.040760
    35  H    5.965003   3.225932   2.112414   2.846771   4.187477
    36  N    6.587162   2.251551   1.371106   2.510824   3.702230
    37  H    8.321037   3.309953   3.246941   4.572445   5.609497
    38  C    2.646398   6.955823   5.733717   5.444890   6.473656
    39  H    3.627157   7.068681   5.868191   5.802765   6.960401
    40  H    2.877766   7.440075   6.321127   6.037867   6.951498
    41  H    2.021379   7.575548   6.274078   5.808236   6.793522
    42  C    2.650617   7.607248   6.204027   5.637923   6.671952
    43  H    3.355707   8.340419   6.924643   6.314887   7.315214
    44  H    3.324751   7.561747   6.188738   5.856892   7.017908
    45  H    1.812992   8.042312   6.671010   6.013809   6.932181
                   26         27         28         29         30
    26  C    0.000000
    27  C    1.382077   0.000000
    28  C    3.806079   2.619819   0.000000
    29  C    4.577830   3.640589   1.367252   0.000000
    30  H    3.423741   3.922940   4.445375   4.131760   0.000000
    31  H    2.158431   3.402486   5.278664   5.588565   2.486655
    32  H    1.083446   2.137438   4.732295   5.609665   4.306259
    33  H    2.146807   1.084184   2.961023   4.204624   5.007098
    34  H    4.411139   3.076575   1.078160   2.183849   5.497409
    35  H    4.846083   4.481593   3.224042   2.142700   2.778516
    36  N    4.111185   3.568771   2.244930   1.372918   2.836047
    37  H    5.655968   4.685613   2.217848   1.078714   4.965616
    38  C    7.572713   7.793444   7.294628   6.387220   4.693399
    39  H    7.997279   8.056485   7.205956   6.158366   5.096202
    40  H    7.978033   8.204808   7.779199   6.955499   5.379691
    41  H    8.004408   8.356185   8.012449   7.102237   4.920829
    42  C    7.985494   8.400534   8.094672   7.136889   4.606289
    43  H    8.659045   9.117114   8.837338   7.864191   5.253542
    44  H    8.249607   8.495994   7.864210   6.790267   4.904992
    45  H    8.251012   8.746444   8.599809   7.712229   5.002912
                   31         32         33         34         35
    31  H    0.000000
    32  H    2.468651   0.000000
    33  H    4.296869   2.470248   0.000000
    34  H    6.121829   5.201683   3.033800   0.000000
    35  H    4.966622   5.923982   5.382682   4.229327   0.000000
    36  N    4.623175   5.193747   4.415882   3.283903   1.015064
    37  H    6.614123   6.683761   5.167661   2.692584   2.530386
    38  C    6.626246   8.422423   8.770192   8.252902   4.586583
    39  H    7.238464   8.919339   9.009017   8.126896   4.391103
    40  H    7.078617   8.771265   9.132977   8.685852   5.339580
    41  H    6.806513   8.815044   9.375583   9.013038   5.153032
    42  C    6.623995   8.809063   9.469038   9.145362   5.009919
    43  H    7.201238   9.458370  10.193829   9.892583   5.721533
    44  H    7.123125   9.147559   9.536970   8.878089   4.699877
    45  H    6.793620   9.012227   9.807063   9.645116   5.641436
                   36         37         38         39         40
    36  N    0.000000
    37  H    2.130738   0.000000
    38  C    5.348590   6.585998   0.000000
    39  H    5.237341   6.185790   1.070000   0.000000
    40  H    6.006054   7.158229   1.070000   1.747303   0.000000
    41  H    5.961776   7.333968   1.070000   1.747303   1.747303
    42  C    5.889689   7.384790   2.634542   2.893000   3.552740
    43  H    6.611543   8.089936   3.668720   3.837547   4.550233
    44  H    5.652281   6.894386   2.323215   2.183076   3.299439
    45  H    6.464852   8.005459   2.363776   2.912482   3.040920
                   41         42         43         44         45
    41  H    0.000000
    42  C    1.851401   0.000000
    43  H    2.813462   1.070000   0.000000
    44  H    1.817887   1.070000   1.747303   0.000000
    45  H    1.343083   1.070000   1.747303   1.747303   0.000000
 Stoichiometry    C17H25N2O(2)
 Framework group  C1[X(C17H25N2O)]
 Deg. of freedom   129
 Full point group                 C1      NOp   1
 Largest Abelian subgroup         C1      NOp   1
 Largest concise Abelian subgroup C1      NOp   1
                         Standard orientation:                         
 ---------------------------------------------------------------------
 Center     Atomic      Atomic             Coordinates (Angstroms)
 Number     Number       Type             X           Y           Z
 ---------------------------------------------------------------------
      1          7           0        1.490521   -0.518757    0.288687
      2          6           0        2.461204    0.275050    1.075929
      3          6           0        2.547314    1.690513    0.504739
      4          6           0        2.822786    1.680718   -0.995844
      5          6           0        1.746097    0.876175   -1.717765
      6          6           0        1.651439   -0.552961   -1.183744
      7          8           0        0.925403   -1.502675    0.861735
      8          6           0        0.514764   -1.327364   -1.828040
      9          6           0        2.073287    0.268461    2.544569
     10          1           0        3.331000    2.228994    1.043130
     11          1           0        1.602330    2.209030    0.705574
     12          1           0        1.948449    0.827704   -2.790429
     13          1           0        0.769696    1.358283   -1.591390
     14          1           0        0.682753   -1.366712   -2.905574
     15          1           0       -0.438864   -0.826608   -1.644227
     16          1           0        0.456164   -2.343629   -1.442984
     17          1           0        1.076867    0.697671    2.674946
     18          1           0        2.789237    0.873183    3.103699
     19          1           0        2.066101   -0.741330    2.948305
     20          1           0        2.856939    2.701541   -1.381774
     21          1           0        3.804809    1.231788   -1.184259
     22          6           0       -3.720725   -0.131734   -0.005457
     23          6           0       -2.343248   -0.125323    0.324384
     24          6           0       -1.590443    1.053320    0.363461
     25          6           0       -2.239212    2.236543    0.062342
     26          6           0       -3.609428    2.254022   -0.266729
     27          6           0       -4.350817    1.088115   -0.300486
     28          6           0       -4.148290   -1.500614    0.047243
     29          6           0       -3.051769   -2.242042    0.389740
     30          1           0       -0.538926    1.029346    0.624444
     31          1           0       -1.686124    3.168501    0.084629
     32          1           0       -4.085729    3.200180   -0.494275
     33          1           0       -5.404807    1.112439   -0.553406
     34          1           0       -5.138578   -1.881764   -0.143763
     35          1           0       -1.010079   -1.705713    0.757184
     36          7           0       -1.965249   -1.421204    0.564676
     37          1           0       -2.955518   -3.307492    0.528218
     38          6           0        2.987576   -1.271314   -1.448898
     39          1           0        2.920175   -2.285125   -1.113422
     40          1           0        3.198762   -1.255986   -2.497738
     41          1           0        3.772144   -0.771946   -0.919763
     42          6           0        3.827816   -0.411511    0.895360
     43          1           0        4.428974   -0.243488    1.764427
     44          1           0        3.683525   -1.462974    0.759326
     45          1           0        4.320479   -0.005095    0.036867
 ---------------------------------------------------------------------
 Rotational constants (GHZ):           0.6036873           0.2171775           0.2011571
 Leave Link  202 at Sat May 16 15:56:22 2020, MaxMem=  2147483648 cpu:               1.6 elap:               0.1
 (Enter /apps/g16/l301.exe)
 Standard basis: 6-311G(d,p) (5D, 7F)
 Ernie: Thresh=  0.10000D-02 Tol=  0.10000D-05 Strict=F.
 There are   530 symmetry adapted cartesian basis functions of A   symmetry.
 There are   510 symmetry adapted basis functions of A   symmetry.
   510 basis functions,   840 primitive gaussians,   530 cartesian basis functions
    75 alpha electrons       74 beta electrons
       nuclear repulsion energy      1660.8773463568 Hartrees.
 IExCor= 4336 DFT=T Ex+Corr=M062X ExCW=0 ScaHFX=  0.540000
 ScaDFX=  1.000000  1.000000  1.000000  1.000000 ScalE2=  1.000000  1.000000
 IRadAn=      5 IRanWt=     -1 IRanGd=            0 ICorTp=0 IEmpDi=  4
 NAtoms=   45 NActive=   45 NUniq=   45 SFac= 1.00D+00 NAtFMM=   60 NAOKFM=F Big=F
 Integral buffers will be    131072 words long.
 Raffenetti 2 integral format.
 Two-electron integral symmetry is turned on.
 ------------------------------------------------------------------------------
 Polarizable Continuum Model (PCM)
 =================================
 Model                : PCM.
 Atomic radii         : UFF (Universal Force Field).
 Polarization charges : Total charges.
 Charge compensation  : None.
 Solution method      : On-the-fly selection.
 Cavity type          : Scaled VdW (van der Waals Surface) (Alpha=1.100).
 Cavity algorithm     : GePol (No added spheres)
                        Default sphere list used, NSphG=   45.
                        Lebedev-Laikov grids with approx.  5.0 points / Ang**2.
                        Smoothing algorithm: York/Karplus (Gamma=1.0000).
                        Polarization charges: spherical gaussians, with
                                              point-specific exponents (IZeta= 3).
                        Self-potential: point-specific (ISelfS= 7).
                        Self-field    : sphere-specific E.n sum rule (ISelfD= 2).
 1st derivatives      : Analytical E(r).r(x)/FMM algorithm (CHGder, D1EAlg=3).
                        Cavity 1st derivative terms included.
 Solvent              : CarbonTetraChloride, Eps=   2.228000 Eps(inf)=   2.131892
 ------------------------------------------------------------------------------
 GePol: Number of generator spheres                  =      45
 GePol: Total number of spheres                      =      45
 GePol: Number of exposed spheres                    =      44 ( 97.78%)
 GePol: Number of points                             =    2743
 GePol: Average weight of points                     =       0.13
 GePol: Minimum weight of points                     =   0.24D-11
 GePol: Maximum weight of points                     =    0.20577
 GePol: Number of points with low weight             =     182
 GePol: Fraction of low-weight points (<1% of avg)   =       6.64%
 GePol: Cavity surface area                          =    356.109 Ang**2
 GePol: Cavity volume                                =    410.650 Ang**3
 Leave Link  301 at Sat May 16 15:56:27 2020, MaxMem=  2147483648 cpu:               2.6 elap:               0.2
 (Enter /apps/g16/l302.exe)
 NPDir=0 NMtPBC=     1 NCelOv=     1 NCel=       1 NClECP=     1 NCelD=      1
         NCelK=      1 NCelE2=     1 NClLst=     1 CellRange=     0.0.
 One-electron integrals computed using PRISM.
 One-electron integral symmetry used in STVInt
 NBasis=   510 RedAO= T EigKep=  1.40D-04  NBF=   510
 NBsUse=   510 1.00D-06 EigRej= -1.00D+00 NBFU=   510
 Precomputing XC quadrature grid using
 IXCGrd= 4 IRadAn=           5 IRanWt=          -1 IRanGd=           0 AccXCQ= 0.00D+00.
 Generated NRdTot=       0 NPtTot=           0 NUsed=           0 NTot=          32
 NSgBfM=   530   530   530   530   530 MxSgAt=    45 MxSgA2=    45.
 Leave Link  302 at Sat May 16 15:56:33 2020, MaxMem=  2147483648 cpu:              15.2 elap:               0.8
 (Enter /apps/g16/l303.exe)
 DipDrv:  MaxL=1.
 Leave Link  303 at Sat May 16 15:56:38 2020, MaxMem=  2147483648 cpu:               3.3 elap:               0.2
 (Enter /apps/g16/l401.exe)
 ExpMin= 1.03D-01 ExpMax= 8.59D+03 ExpMxC= 1.30D+03 IAcc=3 IRadAn=         5 AccDes= 0.00D+00
 Harris functional with IExCor= 1009 and IRadAn=       5 diagonalized for initial guess.
 HarFok:  IExCor= 1009 AccDes= 0.00D+00 IRadAn=         5 IDoV= 1 UseB2=F ITyADJ=14
 ICtDFT=  3500011 ScaDFX=  1.000000  1.000000  1.000000  1.000000
 FoFCou: FMM=F IPFlag=           0 FMFlag=      100000 FMFlg1=           0
         NFxFlg=           0 DoJE=T BraDBF=F KetDBF=T FulRan=T
         wScrn=  0.000000 ICntrl=       500 IOpCl=  0 I1Cent=   200000004 NGrid=           0
         NMat0=    1 NMatS0=      1 NMatT0=    0 NMatD0=    1 NMtDS0=    0 NMtDT0=    0
 Petite list used in FoFCou.
 Harris En= -847.040015360671    
 JPrj=0 DoOrth=F DoCkMO=F.
 Initial guess <Sx>= 0.0000 <Sy>= 0.0000 <Sz>= 0.5000 <S**2>= 0.7500 S= 0.5000
 Leave Link  401 at Sat May 16 15:56:46 2020, MaxMem=  2147483648 cpu:              65.6 elap:               3.4
 (Enter /apps/g16/l502.exe)
 Integral symmetry usage will be decided dynamically.
 UHF open shell SCF:
 Using DIIS extrapolation, IDIIS=  1040.
 NGot=  2147483648 LenX=  2146905791 LenY=  2146624361
 Requested convergence on RMS density matrix=1.00D-08 within 128 cycles.
 Requested convergence on MAX density matrix=1.00D-06.
 Requested convergence on             energy=1.00D-06.
 No special actions if energy rises.
 Fock matrices will be formed incrementally for  20 cycles.

 Cycle   1  Pass 1  IDiag  1:
 FoFJK:  IHMeth= 1 ICntrl=       0 DoSepK=F KAlg= 0 I1Cent=           0 FoldK=F
 IRaf= 800000000 NMat=       1 IRICut=       1 DoRegI=T DoRafI=F ISym2E= 0 IDoP0=0 IntGTp=1.
 FoFCou: FMM=F IPFlag=           0 FMFlag=      100000 FMFlg1=           0
         NFxFlg=           0 DoJE=F BraDBF=F KetDBF=F FulRan=T
         wScrn=  0.000000 ICntrl=         0 IOpCl=  1 I1Cent=           0 NGrid=           0
         NMat0=    1 NMatS0=      1 NMatT0=    0 NMatD0=    1 NMtDS0=    0 NMtDT0=    0
 Symmetry not used in FoFCou.
 Inv3:  Mode=1 IEnd=    22572147.
 Iteration    1 A*A^-1 deviation from unit magnitude is 3.33D-15 for   1357.
 Iteration    1 A*A^-1 deviation from orthogonality  is 1.97D-15 for   1503    424.
 Iteration    1 A^-1*A deviation from unit magnitude is 3.11D-15 for   2401.
 Iteration    1 A^-1*A deviation from orthogonality  is 1.95D-15 for   1805   1658.
 E= -846.711599216125    
 DIIS: error= 3.07D-02 at cycle   1 NSaved=   1.
 NSaved= 1 IEnMin= 1 EnMin= -846.711599216125     IErMin= 1 ErrMin= 3.07D-02
 ErrMax= 3.07D-02  0.00D+00 EMaxC= 1.00D-01 BMatC= 3.06D+00 BMatP= 3.06D+00
 IDIUse=3 WtCom= 6.93D-01 WtEn= 3.07D-01
 Coeff-Com:  0.100D+01
 Coeff-En:   0.100D+01
 Coeff:      0.100D+01
 Gap=     0.392 Goal=   None    Shift=    0.000
 Gap=     0.138 Goal=   None    Shift=    0.000
 GapD=    0.138 DampG=1.000 DampE=0.500 DampFc=0.5000 IDamp=-1.
 Damping current iteration by 5.00D-01
 RMSDP=2.29D-03 MaxDP=1.22D-01              OVMax= 1.78D-01

 Cycle   2  Pass 1  IDiag  1:
 RMSU=  1.14D-03    CP:  9.83D-01
 E= -847.044293529038     Delta-E=       -0.332694312913 Rises=F Damp=T
 DIIS: error= 7.91D-03 at cycle   2 NSaved=   2.
 NSaved= 2 IEnMin= 2 EnMin= -847.044293529038     IErMin= 2 ErrMin= 7.91D-03
 ErrMax= 7.91D-03  0.00D+00 EMaxC= 1.00D-01 BMatC= 2.23D-01 BMatP= 3.06D+00
 IDIUse=3 WtCom= 9.21D-01 WtEn= 7.91D-02
 Coeff-Com: -0.119D+00 0.112D+01
 Coeff-En:   0.000D+00 0.100D+01
 Coeff:     -0.110D+00 0.111D+01
 Gap=     0.312 Goal=   None    Shift=    0.000
 Gap=     0.232 Goal=   None    Shift=    0.000
 RMSDP=6.07D-04 MaxDP=4.29D-02 DE=-3.33D-01 OVMax= 1.05D-01

 Cycle   3  Pass 1  IDiag  1:
 RMSU=  5.96D-04    CP:  9.81D-01  1.10D+00
 E= -847.343381001539     Delta-E=       -0.299087472501 Rises=F Damp=F
 DIIS: error= 6.74D-03 at cycle   3 NSaved=   3.
 NSaved= 3 IEnMin= 3 EnMin= -847.343381001539     IErMin= 3 ErrMin= 6.74D-03
 ErrMax= 6.74D-03  0.00D+00 EMaxC= 1.00D-01 BMatC= 7.37D-02 BMatP= 2.23D-01
 IDIUse=3 WtCom= 9.33D-01 WtEn= 6.74D-02
 Coeff-Com: -0.921D-01 0.418D+00 0.674D+00
 Coeff-En:   0.000D+00 0.000D+00 0.100D+01
 Coeff:     -0.859D-01 0.390D+00 0.696D+00
 Gap=     0.275 Goal=   None    Shift=    0.000
 Gap=     0.222 Goal=   None    Shift=    0.000
 RMSDP=2.91D-04 MaxDP=2.73D-02 DE=-2.99D-01 OVMax= 3.85D-02

 Cycle   4  Pass 1  IDiag  1:
 RMSU=  2.37D-04    CP:  9.83D-01  1.18D+00  7.68D-01
 E= -847.353489705223     Delta-E=       -0.010108703684 Rises=F Damp=F
 DIIS: error= 3.52D-03 at cycle   4 NSaved=   4.
 NSaved= 4 IEnMin= 4 EnMin= -847.353489705223     IErMin= 4 ErrMin= 3.52D-03
 ErrMax= 3.52D-03  0.00D+00 EMaxC= 1.00D-01 BMatC= 2.44D-02 BMatP= 7.37D-02
 IDIUse=3 WtCom= 9.65D-01 WtEn= 3.52D-02
 Coeff-Com: -0.318D-01 0.929D-01 0.396D+00 0.542D+00
 Coeff-En:   0.000D+00 0.000D+00 0.236D+00 0.764D+00
 Coeff:     -0.307D-01 0.897D-01 0.391D+00 0.550D+00
 Gap=     0.272 Goal=   None    Shift=    0.000
 Gap=     0.227 Goal=   None    Shift=    0.000
 RMSDP=1.48D-04 MaxDP=1.34D-02 DE=-1.01D-02 OVMax= 1.24D-02

 Cycle   5  Pass 1  IDiag  1:
 RMSU=  9.18D-05    CP:  9.80D-01  1.17D+00  8.46D-01  5.70D-01
 E= -847.358060007631     Delta-E=       -0.004570302408 Rises=F Damp=F
 DIIS: error= 9.25D-04 at cycle   5 NSaved=   5.
 NSaved= 5 IEnMin= 5 EnMin= -847.358060007631     IErMin= 5 ErrMin= 9.25D-04
 ErrMax= 9.25D-04  0.00D+00 EMaxC= 1.00D-01 BMatC= 6.26D-04 BMatP= 2.44D-02
 IDIUse=3 WtCom= 9.91D-01 WtEn= 9.25D-03
 Coeff-Com: -0.788D-02 0.164D-01 0.130D+00 0.221D+00 0.640D+00
 Coeff-En:   0.000D+00 0.000D+00 0.000D+00 0.000D+00 0.100D+01
 Coeff:     -0.781D-02 0.162D-01 0.129D+00 0.219D+00 0.643D+00
 Gap=     0.272 Goal=   None    Shift=    0.000
 Gap=     0.228 Goal=   None    Shift=    0.000
 RMSDP=3.25D-05 MaxDP=2.12D-03 DE=-4.57D-03 OVMax= 6.36D-03

 Cycle   6  Pass 1  IDiag  1:
 RMSU=  2.24D-05    CP:  9.80D-01  1.17D+00  8.60D-01  6.26D-01  8.15D-01
 E= -847.358200166210     Delta-E=       -0.000140158579 Rises=F Damp=F
 DIIS: error= 2.98D-04 at cycle   6 NSaved=   6.
 NSaved= 6 IEnMin= 6 EnMin= -847.358200166210     IErMin= 6 ErrMin= 2.98D-04
 ErrMax= 2.98D-04  0.00D+00 EMaxC= 1.00D-01 BMatC= 1.25D-04 BMatP= 6.26D-04
 IDIUse=3 WtCom= 9.97D-01 WtEn= 2.98D-03
 Coeff-Com:  0.150D-02-0.626D-02 0.374D-02 0.102D-01 0.290D+00 0.701D+00
 Coeff-En:   0.000D+00 0.000D+00 0.000D+00 0.000D+00 0.000D+00 0.100D+01
 Coeff:      0.150D-02-0.624D-02 0.373D-02 0.102D-01 0.289D+00 0.702D+00
 Gap=     0.272 Goal=   None    Shift=    0.000
 Gap=     0.229 Goal=   None    Shift=    0.000
 RMSDP=1.66D-05 MaxDP=9.11D-04 DE=-1.40D-04 OVMax= 1.51D-03

 Cycle   7  Pass 1  IDiag  1:
 RMSU=  1.03D-05    CP:  9.80D-01  1.17D+00  8.64D-01  6.27D-01  9.51D-01
                    CP:  1.06D+00
 E= -847.358232148243     Delta-E=       -0.000031982034 Rises=F Damp=F
 DIIS: error= 1.49D-04 at cycle   7 NSaved=   7.
 NSaved= 7 IEnMin= 7 EnMin= -847.358232148243     IErMin= 7 ErrMin= 1.49D-04
 ErrMax= 1.49D-04  0.00D+00 EMaxC= 1.00D-01 BMatC= 1.35D-05 BMatP= 1.25D-04
 IDIUse=3 WtCom= 9.99D-01 WtEn= 1.49D-03
 Coeff-Com:  0.187D-02-0.455D-02-0.202D-01-0.433D-01-0.346D-01 0.133D+00
 Coeff-Com:  0.968D+00
 Coeff-En:   0.000D+00 0.000D+00 0.000D+00 0.000D+00 0.000D+00 0.000D+00
 Coeff-En:   0.100D+01
 Coeff:      0.186D-02-0.455D-02-0.202D-01-0.432D-01-0.346D-01 0.133D+00
 Coeff:      0.968D+00
 Gap=     0.272 Goal=   None    Shift=    0.000
 Gap=     0.229 Goal=   None    Shift=    0.000
 RMSDP=9.09D-06 MaxDP=5.60D-04 DE=-3.20D-05 OVMax= 2.11D-03

 Cycle   8  Pass 1  IDiag  1:
 RMSU=  4.31D-06    CP:  9.80D-01  1.16D+00  8.68D-01  6.28D-01  1.01D+00
                    CP:  1.26D+00  1.24D+00
 E= -847.358238736004     Delta-E=       -0.000006587760 Rises=F Damp=F
 DIIS: error= 8.48D-05 at cycle   8 NSaved=   8.
 NSaved= 8 IEnMin= 8 EnMin= -847.358238736004     IErMin= 8 ErrMin= 8.48D-05
 ErrMax= 8.48D-05  0.00D+00 EMaxC= 1.00D-01 BMatC= 6.93D-06 BMatP= 1.35D-05
 IDIUse=1 WtCom= 1.00D+00 WtEn= 0.00D+00
 Coeff-Com:  0.799D-03-0.142D-02-0.118D-01-0.284D-01-0.740D-01-0.782D-01
 Coeff-Com:  0.570D+00 0.623D+00
 Coeff:      0.799D-03-0.142D-02-0.118D-01-0.284D-01-0.740D-01-0.782D-01
 Coeff:      0.570D+00 0.623D+00
 Gap=     0.272 Goal=   None    Shift=    0.000
 Gap=     0.229 Goal=   None    Shift=    0.000
 RMSDP=4.11D-06 MaxDP=3.23D-04 DE=-6.59D-06 OVMax= 6.85D-04

 Cycle   9  Pass 1  IDiag  1:
 RMSU=  1.98D-06    CP:  9.80D-01  1.16D+00  8.69D-01  6.28D-01  1.04D+00
                    CP:  1.32D+00  1.46D+00  9.25D-01
 E= -847.358240832048     Delta-E=       -0.000002096044 Rises=F Damp=F
 DIIS: error= 2.06D-05 at cycle   9 NSaved=   9.
 NSaved= 9 IEnMin= 9 EnMin= -847.358240832048     IErMin= 9 ErrMin= 2.06D-05
 ErrMax= 2.06D-05  0.00D+00 EMaxC= 1.00D-01 BMatC= 4.64D-07 BMatP= 6.93D-06
 IDIUse=1 WtCom= 1.00D+00 WtEn= 0.00D+00
 Coeff-Com: -0.240D-03 0.655D-03 0.263D-02 0.292D-02-0.476D-03-0.481D-01
 Coeff-Com: -0.761D-01 0.444D-01 0.107D+01
 Coeff:     -0.240D-03 0.655D-03 0.263D-02 0.292D-02-0.476D-03-0.481D-01
 Coeff:     -0.761D-01 0.444D-01 0.107D+01
 Gap=     0.272 Goal=   None    Shift=    0.000
 Gap=     0.229 Goal=   None    Shift=    0.000
 RMSDP=2.04D-06 MaxDP=1.53D-04 DE=-2.10D-06 OVMax= 4.09D-04

 Cycle  10  Pass 1  IDiag  1:
 RMSU=  8.02D-07    CP:  9.80D-01  1.16D+00  8.69D-01  6.26D-01  1.05D+00
                    CP:  1.35D+00  1.55D+00  1.08D+00  1.32D+00
 E= -847.358241131504     Delta-E=       -0.000000299456 Rises=F Damp=F
 DIIS: error= 9.55D-06 at cycle  10 NSaved=  10.
 NSaved=10 IEnMin=10 EnMin= -847.358241131504     IErMin=10 ErrMin= 9.55D-06
 ErrMax= 9.55D-06  0.00D+00 EMaxC= 1.00D-01 BMatC= 1.03D-07 BMatP= 4.64D-07
 IDIUse=1 WtCom= 1.00D+00 WtEn= 0.00D+00
 Coeff-Com: -0.181D-03 0.402D-03 0.266D-02 0.476D-02 0.113D-01-0.663D-02
 Coeff-Com: -0.100D+00-0.937D-01 0.357D+00 0.824D+00
 Coeff:     -0.181D-03 0.402D-03 0.266D-02 0.476D-02 0.113D-01-0.663D-02
 Coeff:     -0.100D+00-0.937D-01 0.357D+00 0.824D+00
 Gap=     0.272 Goal=   None    Shift=    0.000
 Gap=     0.229 Goal=   None    Shift=    0.000
 RMSDP=6.75D-07 MaxDP=4.52D-05 DE=-2.99D-07 OVMax= 1.19D-04

 Cycle  11  Pass 1  IDiag  1:
 RMSU=  3.12D-07    CP:  9.80D-01  1.16D+00  8.69D-01  6.25D-01  1.05D+00
                    CP:  1.35D+00  1.58D+00  1.12D+00  1.52D+00  1.00D+00
 E= -847.358241176896     Delta-E=       -0.000000045393 Rises=F Damp=F
 DIIS: error= 3.97D-06 at cycle  11 NSaved=  11.
 NSaved=11 IEnMin=11 EnMin= -847.358241176896     IErMin=11 ErrMin= 3.97D-06
 ErrMax= 3.97D-06  0.00D+00 EMaxC= 1.00D-01 BMatC= 1.74D-08 BMatP= 1.03D-07
 IDIUse=1 WtCom= 1.00D+00 WtEn= 0.00D+00
 Coeff-Com: -0.442D-05-0.466D-05 0.409D-03 0.860D-03 0.385D-02 0.521D-02
 Coeff-Com: -0.150D-01-0.421D-01-0.627D-01 0.268D+00 0.842D+00
 Coeff:     -0.442D-05-0.466D-05 0.409D-03 0.860D-03 0.385D-02 0.521D-02
 Coeff:     -0.150D-01-0.421D-01-0.627D-01 0.268D+00 0.842D+00
 Gap=     0.272 Goal=   None    Shift=    0.000
 Gap=     0.229 Goal=   None    Shift=    0.000
 RMSDP=2.43D-07 MaxDP=1.61D-05 DE=-4.54D-08 OVMax= 3.83D-05

 Cycle  12  Pass 1  IDiag  1:
 RMSU=  1.38D-07    CP:  9.80D-01  1.16D+00  8.69D-01  6.25D-01  1.05D+00
                    CP:  1.35D+00  1.58D+00  1.13D+00  1.57D+00  1.15D+00
                    CP:  1.16D+00
 E= -847.358241184734     Delta-E=       -0.000000007837 Rises=F Damp=F
 DIIS: error= 2.11D-06 at cycle  12 NSaved=  12.
 NSaved=12 IEnMin=12 EnMin= -847.358241184734     IErMin=12 ErrMin= 2.11D-06
 ErrMax= 2.11D-06  0.00D+00 EMaxC= 1.00D-01 BMatC= 4.03D-09 BMatP= 1.74D-08
 IDIUse=1 WtCom= 1.00D+00 WtEn= 0.00D+00
 Coeff-Com:  0.426D-04-0.102D-03-0.437D-03-0.777D-03-0.888D-03 0.340D-02
 Coeff-Com:  0.178D-01 0.204D-02-0.109D+00-0.787D-01 0.348D+00 0.818D+00
 Coeff:      0.426D-04-0.102D-03-0.437D-03-0.777D-03-0.888D-03 0.340D-02
 Coeff:      0.178D-01 0.204D-02-0.109D+00-0.787D-01 0.348D+00 0.818D+00
 Gap=     0.272 Goal=   None    Shift=    0.000
 Gap=     0.229 Goal=   None    Shift=    0.000
 RMSDP=1.25D-07 MaxDP=7.46D-06 DE=-7.84D-09 OVMax= 2.64D-05

 Cycle  13  Pass 1  IDiag  1:
 RMSU=  5.83D-08    CP:  9.80D-01  1.16D+00  8.69D-01  6.24D-01  1.05D+00
                    CP:  1.35D+00  1.59D+00  1.13D+00  1.59D+00  1.20D+00
                    CP:  1.40D+00  1.10D+00
 E= -847.358241186601     Delta-E=       -0.000000001867 Rises=F Damp=F
 DIIS: error= 5.98D-07 at cycle  13 NSaved=  13.
 NSaved=13 IEnMin=13 EnMin= -847.358241186601     IErMin=13 ErrMin= 5.98D-07
 ErrMax= 5.98D-07  0.00D+00 EMaxC= 1.00D-01 BMatC= 4.40D-10 BMatP= 4.03D-09
 IDIUse=1 WtCom= 1.00D+00 WtEn= 0.00D+00
 Coeff-Com:  0.119D-04-0.273D-04-0.174D-03-0.347D-03-0.720D-03 0.293D-03
 Coeff-Com:  0.748D-02 0.604D-02-0.244D-01-0.604D-01-0.125D-01 0.250D+00
 Coeff-Com:  0.835D+00
 Coeff:      0.119D-04-0.273D-04-0.174D-03-0.347D-03-0.720D-03 0.293D-03
 Coeff:      0.748D-02 0.604D-02-0.244D-01-0.604D-01-0.125D-01 0.250D+00
 Coeff:      0.835D+00
 Gap=     0.272 Goal=   None    Shift=    0.000
 Gap=     0.229 Goal=   None    Shift=    0.000
 RMSDP=4.54D-08 MaxDP=2.77D-06 DE=-1.87D-09 OVMax= 1.45D-05

 Cycle  14  Pass 1  IDiag  1:
 RMSU=  2.32D-08    CP:  9.80D-01  1.16D+00  8.69D-01  6.24D-01  1.05D+00
                    CP:  1.35D+00  1.59D+00  1.13D+00  1.60D+00  1.22D+00
                    CP:  1.47D+00  1.27D+00  1.16D+00
 E= -847.358241186878     Delta-E=       -0.000000000277 Rises=F Damp=F
 DIIS: error= 3.74D-07 at cycle  14 NSaved=  14.
 NSaved=14 IEnMin=14 EnMin= -847.358241186878     IErMin=14 ErrMin= 3.74D-07
 ErrMax= 3.74D-07  0.00D+00 EMaxC= 1.00D-01 BMatC= 7.76D-11 BMatP= 4.40D-10
 IDIUse=1 WtCom= 1.00D+00 WtEn= 0.00D+00
 Coeff-Com: -0.415D-05 0.964D-05 0.258D-04 0.327D-04-0.379D-04-0.463D-03
 Coeff-Com: -0.974D-03 0.128D-02 0.113D-01-0.268D-02-0.618D-01-0.707D-01
 Coeff-Com:  0.230D+00 0.894D+00
 Coeff:     -0.415D-05 0.964D-05 0.258D-04 0.327D-04-0.379D-04-0.463D-03
 Coeff:     -0.974D-03 0.128D-02 0.113D-01-0.268D-02-0.618D-01-0.707D-01
 Coeff:      0.230D+00 0.894D+00
 Gap=     0.272 Goal=   None    Shift=    0.000
 Gap=     0.229 Goal=   None    Shift=    0.000
 RMSDP=2.34D-08 MaxDP=1.82D-06 DE=-2.77D-10 OVMax= 1.02D-05

 Cycle  15  Pass 1  IDiag  1:
 RMSU=  1.16D-08    CP:  9.80D-01  1.16D+00  8.69D-01  6.24D-01  1.05D+00
                    CP:  1.35D+00  1.59D+00  1.13D+00  1.60D+00  1.22D+00
                    CP:  1.50D+00  1.34D+00  1.39D+00  1.29D+00
 E= -847.358241186957     Delta-E=       -0.000000000079 Rises=F Damp=F
 DIIS: error= 2.50D-07 at cycle  15 NSaved=  15.
 NSaved=15 IEnMin=15 EnMin= -847.358241186957     IErMin=15 ErrMin= 2.50D-07
 ErrMax= 2.50D-07  0.00D+00 EMaxC= 1.00D-01 BMatC= 1.77D-11 BMatP= 7.76D-11
 IDIUse=1 WtCom= 1.00D+00 WtEn= 0.00D+00
 Coeff-Com: -0.245D-05 0.571D-05 0.304D-04 0.559D-04 0.955D-04-0.129D-03
 Coeff-Com: -0.132D-02-0.555D-03 0.579D-02 0.902D-02-0.957D-02-0.530D-01
 Coeff-Com: -0.929D-01 0.169D+00 0.974D+00
 Coeff:     -0.245D-05 0.571D-05 0.304D-04 0.559D-04 0.955D-04-0.129D-03
 Coeff:     -0.132D-02-0.555D-03 0.579D-02 0.902D-02-0.957D-02-0.530D-01
 Coeff:     -0.929D-01 0.169D+00 0.974D+00
 Gap=     0.272 Goal=   None    Shift=    0.000
 Gap=     0.229 Goal=   None    Shift=    0.000
 RMSDP=1.35D-08 MaxDP=1.19D-06 DE=-7.89D-11 OVMax= 6.98D-06

 Cycle  16  Pass 1  IDiag  1:
 RMSU=  5.56D-09    CP:  9.80D-01  1.16D+00  8.69D-01  6.24D-01  1.05D+00
                    CP:  1.35D+00  1.59D+00  1.13D+00  1.60D+00  1.22D+00
                    CP:  1.51D+00  1.37D+00  1.49D+00  1.62D+00  1.44D+00
 E= -847.358241186985     Delta-E=       -0.000000000028 Rises=F Damp=F
 DIIS: error= 1.51D-07 at cycle  16 NSaved=  16.
 NSaved=16 IEnMin=16 EnMin= -847.358241186985     IErMin=16 ErrMin= 1.51D-07
 ErrMax= 1.51D-07  0.00D+00 EMaxC= 1.00D-01 BMatC= 6.75D-12 BMatP= 1.77D-11
 IDIUse=1 WtCom= 1.00D+00 WtEn= 0.00D+00
 Coeff-Com:  0.668D-06-0.140D-05 0.116D-05 0.777D-05 0.409D-04 0.113D-03
 Coeff-Com: -0.110D-03-0.582D-03-0.208D-02 0.374D-02 0.182D-01 0.723D-02
 Coeff-Com: -0.109D+00-0.261D+00 0.299D+00 0.104D+01
 Coeff:      0.668D-06-0.140D-05 0.116D-05 0.777D-05 0.409D-04 0.113D-03
 Coeff:     -0.110D-03-0.582D-03-0.208D-02 0.374D-02 0.182D-01 0.723D-02
 Coeff:     -0.109D+00-0.261D+00 0.299D+00 0.104D+01
 Gap=     0.272 Goal=   None    Shift=    0.000
 Gap=     0.229 Goal=   None    Shift=    0.000
 RMSDP=1.12D-08 MaxDP=1.01D-06 DE=-2.80D-11 OVMax= 6.03D-06

 Cycle  17  Pass 1  IDiag  1:
 RMSU=  3.17D-09    CP:  9.80D-01  1.16D+00  8.69D-01  6.24D-01  1.05D+00
                    CP:  1.35D+00  1.59D+00  1.13D+00  1.60D+00  1.22D+00
                    CP:  1.51D+00  1.39D+00  1.56D+00  1.88D+00  1.99D+00
                    CP:  1.56D+00
 E= -847.358241187003     Delta-E=       -0.000000000018 Rises=F Damp=F
 DIIS: error= 6.94D-08 at cycle  17 NSaved=  17.
 NSaved=17 IEnMin=17 EnMin= -847.358241187003     IErMin=17 ErrMin= 6.94D-08
 ErrMax= 6.94D-08  0.00D+00 EMaxC= 1.00D-01 BMatC= 1.72D-12 BMatP= 6.75D-12
 IDIUse=1 WtCom= 1.00D+00 WtEn= 0.00D+00
 Coeff-Com:  0.946D-06-0.216D-05-0.879D-05-0.137D-04-0.148D-04 0.767D-04
 Coeff-Com:  0.366D-03-0.299D-04-0.240D-02-0.166D-02 0.866D-02 0.187D-01
 Coeff-Com: -0.395D-02-0.133D+00-0.207D+00 0.325D+00 0.994D+00
 Coeff:      0.946D-06-0.216D-05-0.879D-05-0.137D-04-0.148D-04 0.767D-04
 Coeff:      0.366D-03-0.299D-04-0.240D-02-0.166D-02 0.866D-02 0.187D-01
 Coeff:     -0.395D-02-0.133D+00-0.207D+00 0.325D+00 0.994D+00
 Gap=     0.272 Goal=   None    Shift=    0.000
 Gap=     0.229 Goal=   None    Shift=    0.000
 RMSDP=6.13D-09 MaxDP=5.39D-07 DE=-1.77D-11 OVMax= 3.34D-06

 Error on total polarization charges =  0.00905
 SCF Done:  E(UM062X) =  -847.358241187     A.U. after   17 cycles
            NFock= 17  Conv=0.61D-08     -V/T= 2.0034
 <Sx>= 0.0000 <Sy>= 0.0000 <Sz>= 0.5000 <S**2>= 0.7549 S= 0.5024
 <L.S>=  0.00000000000    
 KE= 8.444553101843D+02 PE=-5.291433785268D+03 EE= 1.938742887540D+03
 Annihilation of the first spin contaminant:
 S**2 before annihilation     0.7549,   after     0.7500
 Leave Link  502 at Sat May 16 16:01:02 2020, MaxMem=  2147483648 cpu:            5004.5 elap:             251.1
 (Enter /apps/g16/l601.exe)
 Copying SCF densities to generalized density rwf, IOpCl= 1 IROHF=0.

 **********************************************************************

            Population analysis using the SCF density.

 **********************************************************************

 Orbital symmetries:
 Alpha Orbitals:
       Occupied  (A) (A) (A) (A) (A) (A) (A) (A) (A) (A) (A) (A)
                 (A) (A) (A) (A) (A) (A) (A) (A) (A) (A) (A) (A)
                 (A) (A) (A) (A) (A) (A) (A) (A) (A) (A) (A) (A)
                 (A) (A) (A) (A) (A) (A) (A) (A) (A) (A) (A) (A)
                 (A) (A) (A) (A) (A) (A) (A) (A) (A) (A) (A) (A)
                 (A) (A) (A) (A) (A) (A) (A) (A) (A) (A) (A) (A)
                 (A) (A) (A)
       Virtual   (A) (A) (A) (A) (A) (A) (A) (A) (A) (A) (A) (A)
[...]
 17247,0.00055273,0.00005960,0.00000211,0.00011450,-0.00013346,0.000017
 51,-0.00009655,0.00002787,-0.00003450,-0.00004267,-0.00000751,-0.00000
 502,0.00001255,0.00005088,-0.00000284,0.00002612,-0.00193259,-0.000062
 17,0.00281131,0.00063789,-0.00015030,-0.00120775,0.00090848,0.00049251
 ,-0.00142621,-0.00023934,0.00005263,0.00045654,-0.00042962,0.00009867,
 0.00010236,0.00001512,-0.00000289,-0.00001105,0.00006686,-0.00007373,-
 0.00000205,-0.00004675,0.00005611,-0.00001088,0.00002039,-0.00004258,-
 0.00001527,-0.00002663,0.00000503,0.00000979,0.00000655,0.00001592,-0.
 00000419,-0.00001693,0.00000914,0.00000093,0.00004485,0.00003227,-0.00
 000847,-0.00012015,-0.00004256,-0.00001833,-0.00001817,0.00001886,-0.0
 0001037,-0.00000148,0.00000165,0.00000177,-0.00000078,0.00000299,0.000
 00090,-0.00000128,0.00000160,0.00000143,0.00001078,0.00008769,0.000068
 81,-0.00003453,0.00002100,-0.00003934,-0.00000200,-0.00000015,0.000000
 94,0.00140513,0.00033568,-0.00158644,-0.00000171,-0.00004540,0.0001267
 6,-0.00060656,-0.00018913,-0.00037691,-0.00101685,-0.00021991,-0.00021
 098,0.51253823,-0.00920631,0.00905304,-0.00179870,0.04692144,-0.107674
 94,0.00776480,0.02811380,-0.02446165,0.00503975,0.00012022,0.00057389,
 -0.00048485,0.00018187,-0.00040878,-0.00009024,-0.00036533,-0.00086883
 ,0.00098994,-0.00104094,-0.00218307,-0.00044487,0.00004092,0.00013472,
 -0.00036756,0.00091237,0.00055658,-0.00141694,0.00137187,0.00110298,0.
 00054645,-0.00094619,-0.00544789,0.00240286,0.00003374,0.00014909,0.00
 006269,-0.00002119,0.00011357,-0.00001618,-0.00005482,-0.00001280,-0.0
 0013153,-0.00001555,-0.00002047,0.00000905,0.00005309,0.00004788,0.000
 12743,-0.00099749,0.00049618,0.00071081,0.00026706,-0.00028301,0.00031
 649,-0.00110169,0.00076665,0.00053341,0.00012552,0.00012705,-0.0001881
 4,0.00022255,-0.00045067,0.00027864,-0.00009530,-0.00000138,0.00001140
 ,0.00011203,-0.00037146,0.00003698,-0.00003705,0.00012834,0.00004006,0
 .00002056,-0.00002249,0.00000599,-0.00003142,0.00003517,0.00000466,0.0
 0001130,0.00000035,-0.00000180,-0.00012914,0.00007176,0.00001792,0.000
 20330,0.00022648,-0.00006511,-0.00003965,-0.00016471,-0.00005558,-0.00
 002288,0.00003154,-0.00001549,-0.00000215,0.00000425,-0.00000202,-0.00
 000466,0.00000962,-0.00000108,-0.00001260,0.00001505,0.00000069,0.0009
 3674,-0.00009267,-0.00010184,-0.00050529,0.00010836,0.00004865,0.00000
 373,-0.00000460,-0.00000531,0.00046708,0.00071876,-0.00061674,0.000010
 99,-0.00000389,0.00012789,-0.00019446,-0.00011992,-0.00012693,-0.00034
 747,-0.00025866,-0.00026075,0.05750215,0.55288708,-0.03391928,0.009760
 17,-0.01707081,-0.01075857,0.01130857,-0.07514297,-0.00486589,0.005299
 98,-0.00011848,-0.00079123,0.00011774,0.00014023,0.00005896,-0.0003588
 4,-0.00030346,-0.00032211,-0.00073270,0.00190175,-0.00011916,0.0006876
 9,0.00009218,0.00013290,0.00003059,-0.00059543,0.02434039,-0.01361345,
 0.00431822,0.00000090,-0.00100923,0.00038731,0.00042835,0.00039884,0.0
 0012141,0.00003344,0.00013244,-0.00001789,0.00007946,0.00004091,0.0000
 9816,-0.00005189,-0.00003115,-0.00024374,0.00009549,-0.00001420,0.0000
 5796,0.00007708,0.00003221,0.00016645,0.00372436,-0.00039712,-0.004257
 36,0.00023420,-0.00023969,0.00032020,-0.00019300,-0.00039917,0.0007630
 1,0.00009038,-0.00011477,0.00013114,0.00020422,0.00047011,-0.00040446,
 -0.00014715,0.00001079,0.00002918,0.00002012,-0.00029429,-0.00000321,0
 .00004481,0.00003308,0.00016820,-0.00002898,0.00007099,0.00005179,0.00
 001905,0.00004042,-0.00001744,0.00000523,-0.00003777,0.00001109,-0.000
 10735,0.00005774,0.00002518,0.00013127,0.00018755,-0.00002497,0.000061
 80,-0.00007143,-0.00016793,-0.00000296,0.00000740,-0.00000987,0.000000
 41,0.00000017,-0.00000777,-0.00000292,0.00000487,-0.00000231,-0.000012
 03,0.00001285,-0.00000998,0.00107175,-0.00021353,-0.00031568,-0.000412
 85,0.00009454,0.00018542,0.00001112,-0.00000375,-0.00001634,0.00059542
 ,0.00003484,-0.00118997,-0.00001730,0.00004076,0.00021887,-0.00006732,
 -0.00007727,-0.00001596,-0.00039689,-0.00023426,-0.00118355,-0.0272747
 1,0.01701544,0.58168533,-0.00533077,0.00313837,-0.00269400,-0.01064277
 ,-0.00848769,-0.02258074,0.00029626,-0.00099446,0.00021770,-0.00016001
 ,-0.00009071,0.00013690,-0.00001824,-0.00011858,-0.00004546,-0.0006453
 1,-0.00029120,0.00088118,0.00001967,-0.00021298,-0.00016105,0.00015633
 ,0.00003279,-0.00034798,0.00072611,-0.00066853,-0.00081104,0.00042863,
 0.00040656,0.00014798,0.00013176,0.00001152,0.00027879,0.00002681,0.00
 008878,-0.00000750,0.00000350,-0.00001256,-0.00000086,-0.00006740,-0.0
 0001555,-0.00011967,0.00005257,-0.00000916,0.00002510,0.00001304,0.000
 01289,0.00007023,0.00044255,-0.00006431,0.00014368,-0.00055904,0.00062
 660,0.00058257,-0.00009603,-0.00020224,0.00001000,0.00007948,-0.000033
 82,0.00000728,0.00008495,-0.00000382,0.00001371,-0.00005743,-0.0000010
 7,0.00001113,0.00001676,-0.00014311,0.00000770,0.00002730,0.00003421,0
 .00004355,-0.00000518,0.00000732,0.00001858,-0.00000618,0.00001620,-0.
 00000099,-0.00000123,-0.00000498,0.00000387,-0.00006323,0.00003304,0.0
 0001432,0.00009084,0.00009834,-0.00002243,0.00002995,-0.00005565,-0.00
 003570,-0.00000042,0.00000508,-0.00000632,-0.00000298,0.00000235,-0.00
 000341,-0.00000402,0.00000319,-0.00000167,-0.00000774,0.00000552,-0.00
 000351,0.00049384,-0.00007325,-0.00012160,-0.00022605,0.00003856,0.000
 07110,0.00000437,-0.00000351,-0.00000750,-0.00040048,-0.00010871,0.000
 22464,-0.00007244,0.00001530,0.00000856,0.00025776,-0.00000782,0.00007
 436,0.00039425,0.00012172,0.00002218,-0.08541329,-0.02913087,-0.089733
 16,0.09374316,0.00223628,-0.00237472,0.00143473,0.00733097,0.00308179,
 0.01547227,-0.00000835,0.00082928,0.00047265,-0.00010190,-0.00009792,0
 .00001294,0.00001214,0.00012281,-0.00003897,-0.00000813,0.00013364,-0.
 00031883,0.00016485,0.00161459,-0.00044190,-0.00001649,-0.00001097,0.0
 0008598,-0.00040156,0.00057873,0.00034398,0.00000929,-0.00058650,-0.00
 004638,-0.00017674,0.00014934,-0.00025066,-0.00001610,-0.00004055,-0.0
 0002144,0.00000706,-0.00000096,-0.00001068,0.00001438,0.00000725,0.000
 03065,-0.00000696,0.00000361,-0.00000219,-0.00000440,-0.00000251,-0.00
 002814,-0.00018294,-0.00005517,0.00019430,0.00025641,0.00001729,-0.000
 16498,-0.00008068,-0.00007362,-0.00020619,0.00002452,-0.00002888,0.000
 01208,0.00003438,-0.00002696,0.00000290,0.00002353,-0.00000059,-0.0000
 0456,-0.00001230,0.00006338,-0.00000521,0.00000410,-0.00000634,-0.0000
 1503,-0.00000158,-0.00000498,-0.00000304,0.00000079,-0.00000795,0.0000
 0129,-0.00000244,0.00000445,-0.00000014,0.00002037,-0.00001168,-0.0000
 0057,-0.00002764,-0.00003894,0.00001013,-0.00001645,0.00002329,0.00001
 051,0.00000342,-0.00000517,0.00000333,-0.00000008,-0.00000032,0.000000
 37,0.00000003,-0.00000139,-0.00000001,0.00000125,-0.00000279,-0.000000
 75,-0.00020049,0.00004124,0.00001158,0.00008493,-0.00003139,-0.0000037
 5,-0.00000095,-0.00000021,-0.00000182,-0.00005279,-0.00006324,0.000108
 68,0.00009302,0.00006860,0.00007896,-0.00003306,0.00013360,-0.00001057
 ,0.00001012,-0.00009203,0.00007212,-0.03049630,-0.06830108,-0.06828032
 ,0.02992540,0.07090187,-0.00093564,0.00141434,0.00052919,-0.00165681,-
 0.00226193,-0.00595800,-0.00001972,-0.00053713,-0.00015149,0.00030329,
 0.00019762,-0.00013817,-0.00001681,-0.00010741,0.00008554,0.00012244,-
 0.00028123,0.00042275,0.00014015,-0.00018011,0.00020231,0.00003058,0.0
 0007637,-0.00003597,0.00137396,-0.00073944,0.00018386,0.00011258,0.000
 58482,0.00016402,0.00014936,0.00016902,0.00021792,0.00002575,0.0000349
 2,0.00001033,-0.00003008,0.00003987,-0.00000340,-0.00000816,-0.0000054
 6,-0.00003791,-0.00003142,0.00000081,0.00000292,0.00001654,0.00000136,
 0.00002340,0.00014792,0.00024543,0.00019655,0.00032065,-0.00004902,0.0
 0062538,-0.00020384,0.00020197,-0.00001134,-0.00009740,0.00009363,-0.0
 0001527,-0.00022539,-0.00005909,-0.00002670,-0.00002699,-0.00000396,0.
 00000589,0.00001456,-0.00006963,0.00000433,0.00001924,0.00003410,0.000
 01365,-0.00000563,-0.00001000,0.00001148,-0.00000841,0.00000829,0.0000
 0177,-0.00000137,0.00000189,0.00000159,-0.00003540,0.00002158,0.000006
 74,0.00006407,0.00005222,-0.00001608,-0.00000661,-0.00002644,-0.000016
 36,0.00000090,0.00000347,-0.00000567,-0.00000467,0.00000335,-0.0000016
 9,-0.00000417,0.00000168,-0.00000062,-0.00000448,0.00000177,-0.0000012
 1,0.00019930,-0.00003001,-0.00005003,-0.00011077,0.00001035,0.00003142
 ,0.00000368,-0.00000114,-0.00000333,0.00052634,0.00016856,-0.00027887,
 0.00001148,0.00002703,0.00006197,-0.00019759,-0.00004064,-0.00011407,-
 0.00040884,-0.00013039,-0.00002931,-0.09196629,-0.06784031,-0.25648867
 ,0.10002242,0.07465223,0.27617158,0.00224646,0.00074290,0.00061078,0.0
 0504634,0.02762770,-0.00154151,-0.00494925,0.00230687,-0.00062495,-0.0
 0028202,0.00010009,0.00032085,0.00007181,-0.00001640,0.00007148,-0.000
 17164,0.00010801,-0.00039340,-0.00005999,-0.00056937,0.00033206,-0.000
 02946,0.00000615,0.00005760,0.00148409,0.00026447,-0.00073832,-0.00010
 403,-0.00007371,0.00011559,0.00031088,0.00159406,-0.00049269,-0.000020
 30,-0.00005157,-0.00001671,0.00005360,0.00001809,0.00005501,0.00000617
 ,-0.00001095,0.00003396,-0.00001329,0.00001297,-0.00001181,-0.00000985
 ,-0.00002565,-0.00003373,0.00005974,-0.00028062,-0.00008893,-0.0000813
 2,0.00000949,0.00000195,-0.00036334,-0.00021191,0.00046881,0.00013585,
 -0.00005742,-0.00010657,0.00023031,-0.00006510,-0.00023861,0.00003384,
 0.00000281,-0.00000524,-0.00004032,0.00010888,-0.00000488,0.00000166,-
 0.00004694,-0.00000328,-0.00000093,0.00001055,-0.00000123,0.00001113,-
 0.00001249,-0.00000217,-0.00000441,-0.00000103,0.00000096,0.00003773,-
 0.00002833,-0.00000259,-0.00007943,-0.00005842,0.00002063,0.00005807,0
 .00003754,0.00002232,0.00000625,-0.00001005,0.00000532,0.00000202,-0.0
 0000258,0.00000011,0.00000284,-0.00000276,-0.00000030,0.00000398,-0.00
 000353,-0.00000071,-0.00023020,0.00002584,0.00000818,0.00014939,-0.000
 02832,-0.00001129,-0.00000724,-0.00000145,-0.00000175,-0.00001048,-0.0
 0001786,0.00010595,0.00008643,0.00001487,-0.00001605,-0.00006741,0.000
 06618,0.00001754,-0.00006234,-0.00014179,-0.00008510,-0.06195098,-0.06
 713879,0.00433901,-0.00367399,-0.01092434,0.00171731,0.06712138,-0.002
 21813,-0.00113323,-0.00049458,-0.00395611,-0.01829030,0.00141574,0.003
 65522,-0.00052468,0.00010462,0.00015759,0.00000597,-0.00036027,-0.0000
 8680,-0.00005712,-0.00004902,0.00019569,-0.00024152,0.00015194,-0.0003
 3675,0.00186074,-0.00085432,0.00002041,0.00007332,-0.00002085,-0.00086
 213,0.00029274,0.00037224,0.00006517,0.00044139,0.00006135,-0.00009619
 ,-0.00101758,0.00047539,0.00003075,0.00004543,0.00006301,-0.00000621,0
 .00001819,-0.00000587,0.00000122,-0.00000092,-0.00002754,0.00000177,-0
 .00000995,0.00000663,0.00002670,0.00001915,0.00002562,0.00009308,0.000
 33825,0.00003040,0.00003757,0.00005785,0.00012527,0.00048507,0.0002971
 7,-0.00056195,-0.00005141,-0.00000839,0.00009899,-0.00005214,0.0000825
 5,-0.00001895,-0.00002299,-0.00000050,0.00000289,0.00005254,-0.0000825
 5,0.00000200,-0.00001338,0.00003872,0.00001759,-0.00000232,0.00000318,
 0.00000141,-0.00000105,0.00001431,-0.00000087,0.00000802,-0.00000593,-
 0.00000084,-0.00001297,0.00001554,-0.00000188,0.00003074,0.00003045,-0
 .00000783,-0.00003259,-0.00003508,-0.00002483,-0.00000894,0.00001067,-
 0.00000510,0.00000072,-0.00000035,-0.00000053,0.00000123,0.00000157,-0
 .00000008,0.00000006,0.00000313,0.00000003,0.00008692,-0.00000208,-0.0
 0000693,-0.00006477,0.00002156,0.00000452,0.00000380,0.00000267,0.0000
 0236,-0.00006380,-0.00002611,0.00003579,0.00003681,0.00001584,0.000082
 14,0.00000902,0.00004202,-0.00002658,0.00007858,-0.00008692,0.00011114
 ,-0.06326989,-0.30383925,0.01228324,-0.00117378,-0.00643147,0.00081082
 ,0.06747927,0.32986133,0.00090500,0.00120043,0.00013724,0.00003364,0.0
 0693881,-0.00240701,-0.00133627,0.00039345,-0.00008259,0.00020318,-0.0
 0004801,0.00015149,-0.00000872,0.00009235,0.00012862,-0.00017142,0.000
 32180,-0.00021747,-0.00004734,-0.00050802,-0.00027394,-0.00001977,-0.0
 0005225,0.00001770,0.00003001,-0.00091052,-0.00022023,0.00022020,0.000
 13313,0.00016459,0.00010236,0.00046953,0.00017979,-0.00000932,-0.00002
 149,-0.00001088,-0.00004169,-0.00006298,-0.00004136,0.00000675,-0.0000
 0201,0.00002602,0.00001608,-0.00000158,-0.00000666,-0.00003461,-0.0000
 1518,-0.00003164,-0.00000650,0.00012305,-0.00009916,0.00008587,-0.0001
 0052,0.00006314,0.00041574,-0.00013662,0.00015080,-0.00011383,0.000042
 78,-0.00000882,-0.00023778,-0.00002871,0.00018807,0.00001345,0.0000009
 2,-0.00000084,-0.00001264,0.00004915,-0.00000508,-0.00001380,-0.000025
 96,-0.00000877,0.00000428,0.00000513,-0.00000786,0.00000558,-0.0000062
 2,-0.00000078,0.00000089,-0.00000197,-0.00000191,0.00002205,-0.0000110
 5,-0.00001003,-0.00003299,-0.00003266,0.00000420,0.00001850,0.00002509
 ,0.00001661,0.00000194,-0.00000353,0.00000319,0.00000187,-0.00000074,0
 .00000121,0.00000162,-0.00000123,0.00000124,0.00000335,-0.00000151,0.0
 0000306,-0.00015563,0.00001406,0.00006573,0.00007371,-0.00000709,-0.00
 003300,0.00000019,0.00000280,0.00000873,-0.00002997,-0.00006581,0.0002
 4758,-0.00017230,-0.00019624,-0.00041101,0.00003674,-0.00010248,0.0000
 8416,0.00014147,0.00022375,0.00015680,0.00450654,0.01085377,-0.0477374
 3,-0.00579535,-0.02806145,0.00277015,-0.00317365,-0.01371078,0.0478352
 1,0.00140327,-0.00017099,0.00074431,-0.01684414,-0.00462124,0.01992746
 ,0.00037656,-0.00121869,0.00040656,-0.00033691,0.00003179,0.00015028,0
 .00006330,-0.00001743,-0.00020203,-0.00084169,-0.00001852,-0.00001288,
 -0.00024019,-0.00014511,-0.00064651,0.00012620,-0.00003044,-0.00019339
 ,-0.00411175,0.00312477,-0.00242906,0.00002105,0.00021705,-0.00004676,
 0.00004711,-0.00014295,0.00000230,-0.00000066,0.00003089,-0.00001237,0
 .00009902,-0.00003462,0.00007680,-0.00003400,-0.00000293,-0.00004095,0
 .00007500,-0.00001016,0.00003596,-0.00000300,0.00001503,0.00002770,-0.
 00079315,0.00015266,0.00146004,0.00017328,0.00014086,0.00016031,0.0002
 5887,0.00005669,-0.00030096,0.00033929,-0.00020836,-0.00008469,0.00088
 862,0.00002595,-0.00028012,0.00000426,-0.00000752,-0.00000245,0.000028
 25,-0.00003400,0.00000969,-0.00001879,0.00002395,-0.00007322,0.0000083
 5,-0.00004013,-0.00002537,-0.00002115,-0.00000113,0.00000557,-0.000001
 91,0.00001474,-0.00000530,-0.00002438,0.00001364,-0.00000547,0.0000562
 0,0.00002862,-0.00002031,-0.00000605,-0.00001947,0.00008259,-0.0000007
 6,0.00000807,0.00000683,-0.00000407,0.00000433,0.00000496,-0.00000360,
 0.00000192,0.00000247,-0.00000224,0.00000046,0.00000645,0.00004408,0.0
 0004494,0.00010137,-0.00007622,-0.00000425,-0.00005929,0.00000214,0.00
 000012,0.00000873,-0.00083140,-0.00020022,0.00032516,-0.00004989,0.000
 02531,-0.00007129,0.00046029,0.00005695,0.00022929,0.00126633,0.000077
 43,-0.00057519,-0.17691489,-0.02619108,0.13342463,0.00993438,0.0025154
 3,-0.00931602,-0.00494771,-0.00022562,0.00456254,0.19043268,-0.0010488
 1,0.00009548,-0.00016236,0.01099438,0.00193385,-0.01457170,-0.00022555
 ,0.00086502,-0.00053449,0.00048878,-0.00064141,0.00041783,0.00008737,0
 .00011184,0.00012551,0.00016136,0.00025695,0.00024368,-0.00039908,-0.0
 0000808,-0.00022544,0.00004655,-0.00011501,-0.00000733,0.00327912,-0.0
 0187433,0.00125533,-0.00019078,-0.00008534,-0.00019201,-0.00019390,0.0
 0022822,-0.00004979,-0.00002048,-0.00000567,-0.00004560,-0.00006557,-0
 .00006149,-0.00005124,0.00000322,0.00001345,0.00000206,0.00003291,0.00
 000310,0.00000634,-0.00003051,-0.00001371,-0.00000695,0.00090798,0.000
 35718,-0.00080278,-0.00015710,0.00004043,0.00031110,0.00015823,0.00018
 696,-0.00015152,-0.00018184,0.00012466,-0.00006463,0.00002287,-0.00145
 528,0.00139756,-0.00000676,0.00000225,0.00000274,-0.00002323,0.0000269
 5,-0.00000276,0.00001042,-0.00001999,0.00001992,-0.00000606,0.00001757
 ,0.00000608,0.00000926,-0.00000179,-0.00000304,-0.00000097,-0.00000589
 ,0.00000156,0.00000872,-0.00000335,-0.00000269,-0.00001703,-0.00001552
 ,0.00000531,0.00000856,0.00002706,-0.00002541,0.00000404,-0.00000583,0
 .00000040,0.00000116,-0.00000080,-0.00000082,0.00000036,-0.00000110,-0
 .00000005,0.00000068,-0.00000059,-0.00000052,0.00000192,-0.00003142,-0
 .00001383,0.00002631,-0.00000370,0.00001526,0.00000282,0.00000141,0.00
 000163,-0.00013008,-0.00018437,0.00004501,-0.00016341,-0.00014228,-0.0
 0010367,0.00013214,-0.00008407,0.00008905,0.00001542,0.00078392,-0.000
 47849,-0.02680587,-0.05236617,0.02794903,0.00728462,0.00052358,-0.0064
 8421,-0.02075539,-0.00179984,0.02322660,0.02673328,0.05332720,0.000915
 47,-0.00033978,0.00100879,-0.00590564,-0.00216501,0.00504071,0.0006907
 6,-0.00012139,0.00005594,0.00002052,0.00031718,-0.00039612,-0.00018379
 ,0.00016933,-0.00000351,0.00012618,0.00029892,0.00007610,0.00000702,-0
 .00013043,-0.00006707,0.00001779,-0.00008326,-0.00003678,-0.00043238,0
 .00048272,0.00055697,0.00015895,-0.00006814,-0.00012750,-0.00007096,-0
 .00017466,-0.00002507,0.00000474,-0.00002408,0.00000807,-0.00004047,-0
 .00004219,-0.00004881,0.00001259,0.00000388,0.00002705,0.00003123,0.00
 000365,0.00001906,-0.00000757,-0.00000620,-0.00001056,-0.00008727,0.00
 019091,0.00039903,-0.00018087,0.00024338,0.00033517,-0.00020467,-0.000
 00865,-0.00007666,-0.00006731,-0.00002923,0.00005595,-0.00029916,0.001
 27542,-0.00041973,0.00001301,0.00000359,-0.00000227,-0.00001439,0.0000
 3425,-0.00000135,-0.00000318,-0.00001939,0.00001727,0.00000098,0.00001
 532,0.00000332,0.00000815,-0.00000284,-0.00000134,0.00000038,-0.000003
 20,0.00000080,0.00002007,-0.00001303,0.00000034,-0.00004097,-0.0000286
 8,0.00001172,0.00001699,0.00001277,-0.00001280,-0.00000150,-0.00000279
 ,-0.00000016,0.00000323,-0.00000295,-0.00000124,0.00000285,-0.00000115
 ,-0.00000092,0.00000213,-0.00000066,-0.00000174,-0.00008197,0.00000196
 ,-0.00000773,0.00006502,-0.00000199,0.00000189,-0.00000301,-0.00000050
 ,-0.00000245,0.00011826,0.00010397,-0.00145465,0.00020465,-0.00005871,
 0.00020555,-0.00022229,-0.00008379,-0.00010584,-0.00115059,-0.00049040
 ,-0.00323714,0.13516295,0.02708620,-0.18552738,0.01946240,0.00490589,-
 0.01836062,-0.00070997,-0.00010554,-0.00078887,-0.14735837,-0.03114067
 ,0.20289457\\0.00000746,0.00000802,-0.00000193,-0.00000429,0.00000327,
 -0.00001121,0.00000415,-0.00000459,-0.00000080,-0.00000188,-0.00000504
 ,0.00000165,-0.00000067,-0.00000769,0.00000298,-0.00001480,0.00000793,
 -0.00000510,0.00000209,0.00000742,0.00001306,0.00000040,0.00000132,0.0
 0001778,0.00000320,-0.00000283,0.00000300,-0.00000023,0.00000179,-0.00
 000110,-0.00000029,0.00000258,0.00000363,0.00000249,0.00000336,0.00000
 087,-0.00000120,0.00000170,-0.00000280,-0.00000033,0.00000211,-0.00000
 355,0.00000197,0.00000018,-0.00000658,0.00000241,-0.00000182,-0.000003
 61,-0.00000729,-0.00000300,0.00000019,-0.00000081,0.00000529,-0.000002
 10,-0.00000225,0.00000202,-0.00000141,-0.00000220,0.00000107,-0.000000
 54,0.00000003,0.00000100,-0.00000021,0.00000420,0.00000021,-0.00000444
 ,0.00000512,0.00000783,0.00000543,-0.00000466,0.00000043,0.00000232,0.
 00000260,-0.00000231,-0.00000120,-0.00000313,0.00000131,0.00000117,-0.
 00000068,-0.00000201,-0.00000541,-0.00000154,-0.00000151,0.00000480,-0
 .00000029,0.00000168,-0.00000550,0.00000060,0.00000269,0.00000013,0.00
 000026,-0.00000045,-0.00000032,-0.00000045,-0.00000067,-0.00000004,-0.
 00000021,-0.00000086,0.00000191,0.00000023,-0.00000061,0.00000054,-0.0
 0000866,-0.00003632,-0.00002968,0.00000743,0.00001542,0.00002396,-0.00
 000021,-0.00000087,0.00000113,0.00000049,-0.00000353,0.00000034,0.0000
 0056,-0.00000281,0.00000187,-0.00000225,0.00000179,-0.00000515,0.00000
 501,0.00000136,0.00000183,0.00000276,-0.00000880,0.00000382,0.00000121
 ,0.00000200,0.00000426,-0.00000163,-0.00000143,0.00000059,0.00000527,0
 .00000335,-0.00000461\\\@


 YOU CAN LEAD A BOY TO COLLEGE....
 BUT YOU CANNOT MAKE HIM THINK....
           ELBERT HUBBARD
 Job cpu time:       0 days 19 hours 17 minutes 26.6 seconds.
 Elapsed time:       0 days  0 hours 57 minutes 55.9 seconds.
 File lengths (MBytes):  RWF=   2283 Int=      0 D2E=      0 Chk=     43 Scr=      1
 Normal termination of Gaussian 16 at Sat May 16 18:32:27 2020.
