 Entering Gaussian System, Link 0=g16
 Input=Tem_Ser_Cb_2.gjf
 Output=Tem_Ser_Cb_2.log
 Initial command:
 /share/apps/g16/l1.exe "/backup/38149.cluster.hpc/Gau-17583.inp" -scrdir="/backup/38149.cluster.hpc/"
 Entering Link 1 = /share/apps/g16/l1.exe PID=     17584.
  
 Copyright (c) 1988,1990,1992,1993,1995,1998,2003,2009,2016,
            Gaussian, Inc.  All Rights Reserved.
  
 This is part of the Gaussian(R) 16 program.  It is based on
 the Gaussian(R) 09 system (copyright 2009, Gaussian, Inc.),
 the Gaussian(R) 03 system (copyright 2003, Gaussian, Inc.),
 the Gaussian(R) 98 system (copyright 1998, Gaussian, Inc.),
 the Gaussian(R) 94 system (copyright 1995, Gaussian, Inc.),
 the Gaussian 92(TM) system (copyright 1992, Gaussian, Inc.),
 the Gaussian 90(TM) system (copyright 1990, Gaussian, Inc.),
 the Gaussian 88(TM) system (copyright 1988, Gaussian, Inc.),
 the Gaussian 86(TM) system (copyright 1986, Carnegie Mellon
 University), and the Gaussian 82(TM) system (copyright 1983,
 Carnegie Mellon University). Gaussian is a federally registered
 trademark of Gaussian, Inc.
  
 This software contains proprietary and confidential information,
 including trade secrets, belonging to Gaussian, Inc.
  
 This software is provided under written license and may be
 used, copied, transmitted, or stored only in accord with that
 written license.
  
 The following legend is applicable only to US Government
 contracts under FAR:
  
                    RESTRICTED RIGHTS LEGEND
  
 Use, reproduction and disclosure by the US Government is
 subject to restrictions as set forth in subparagraphs (a)
 and (c) of the Commercial Computer Software - Restricted
 Rights clause in FAR 52.227-19.
  
 Gaussian, Inc.
 340 Quinnipiac St., Bldg. 40, Wallingford CT 06492
  
  
 ---------------------------------------------------------------
 Warning -- This program may not be used in any manner that
 competes with the business of Gaussian, Inc. or will provide
 assistance to any competitor of Gaussian, Inc.  The licensee
 of this program is prohibited from giving any competitor of
 Gaussian, Inc. access to this program.  By using this program,
 the user acknowledges that Gaussian, Inc. is engaged in the
 business of creating and licensing software in the field of
 computational chemistry and represents and warrants to the
 licensee that it is not a competitor of Gaussian, Inc. and that
 it will not use this program in any manner prohibited above.
 ---------------------------------------------------------------
  

 Cite this work as:
 Gaussian 16, Revision A.03,
 M. J. Frisch, G. W. Trucks, H. B. Schlegel, G. E. Scuseria, 
 M. A. Robb, J. R. Cheeseman, G. Scalmani, V. Barone, 
 G. A. Petersson, H. Nakatsuji, X. Li, M. Caricato, A. V. Marenich, 
 J. Bloino, B. G. Janesko, R. Gomperts, B. Mennucci, H. P. Hratchian, 
 J. V. Ortiz, A. F. Izmaylov, J. L. Sonnenberg, D. Williams-Young, 
 F. Ding, F. Lipparini, F. Egidi, J. Goings, B. Peng, A. Petrone, 
 T. Henderson, D. Ranasinghe, V. G. Zakrzewski, J. Gao, N. Rega, 
 G. Zheng, W. Liang, M. Hada, M. Ehara, K. Toyota, R. Fukuda, 
 J. Hasegawa, M. Ishida, T. Nakajima, Y. Honda, O. Kitao, H. Nakai, 
 T. Vreven, K. Throssell, J. A. Montgomery, Jr., J. E. Peralta, 
 F. Ogliaro, M. J. Bearpark, J. J. Heyd, E. N. Brothers, K. N. Kudin, 
 V. N. Staroverov, T. A. Keith, R. Kobayashi, J. Normand, 
 K. Raghavachari, A. P. Rendell, J. C. Burant, S. S. Iyengar, 
 J. Tomasi, M. Cossi, J. M. Millam, M. Klene, C. Adamo, R. Cammi, 
 J. W. Ochterski, R. L. Martin, K. Morokuma, O. Farkas, 
 J. B. Foresman, and D. J. Fox, Gaussian, Inc., Wallingford CT, 2016.
 
 ******************************************
 Gaussian 16:  ES64L-G16RevA.03 25-Dec-2016
                23-Apr-2021 
 ******************************************
 %mem=2GB
 %nprocshared=16
 Will use up to   16 processors via shared memory.
 %chk=Tem_Ser_Cb_2.chk
 -------------------------------------------------------------
 # opt=calcall freq m062x/6-311g(d,p) scrf=(solvent=water,pcm)
 -------------------------------------------------------------
 1/10=4,18=20,19=15,26=3,38=1/1,3;
 2/9=110,12=2,17=6,18=5,40=1/2;
 3/5=4,6=6,7=101,11=2,25=1,30=1,70=2201,71=2,72=1,74=-55,140=1/1,2,3;
 4//1;
 5/5=2,38=5,53=1/2;
 8/6=4,10=90,11=11/1;
 11/6=1,8=1,9=11,15=111,16=1/1,2,10;
 10/6=1/2;
 6/7=2,8=2,9=2,10=2,18=1,28=1/1;
 7/10=1,25=1/1,2,3,16;
 1/10=4,18=20,19=15,26=3/3(3);
 2/9=110/2;
 7/8=1,9=1,25=1,44=-1/16;
 99//99;
 2/9=110/2;
 3/5=4,6=6,7=101,11=2,25=1,30=1,70=2205,71=2,72=1,74=-55,140=1/1,2,3;
 4/5=5,16=3,69=1/1;
 5/5=2,38=5,53=1/2;
 8/6=4,10=90,11=11/1;
 11/6=1,8=1,9=11,15=111,16=1/1,2,10;
 10/6=1/2;
 7/10=1,25=1/1,2,3,16;
 1/10=4,18=20,19=15,26=3/3(-8);
 2/9=110/2;
 6/7=2,8=2,9=2,10=2,18=1,19=2,28=1/1;
 7/8=1,9=1,25=1,44=-1/16;
 99//99;
 -------------------
 Title Card Required
 -------------------
 Symbolic Z-matrix:
 Charge =  0 Multiplicity = 2
 O                    0     4.43107   0.47795   1.68828  L 
 H                    0     4.47003   1.32714   2.13856  L 
 C                    0     1.44376   1.24283  -0.53119  L 
 N                    0     1.18287  -0.18949  -0.87163  L 
 O                    0     0.15315  -0.41742  -1.58348  L 
 C                    0     2.82661   1.38693   0.11155  L 
 C                    0     3.1244    0.32097   1.15466  L 
 C                    0     3.09087  -1.0331    0.47462  L 
 C                    0     1.72933  -1.37252  -0.13758  L 
 C                    0     1.89653  -2.50445  -1.15201  L 
 C                    0     1.40929   2.04066  -1.83604  L 
 C                    0     0.71948  -1.79877   0.93754  L 
 C                    0     0.33084   1.73963   0.4002   L 
 H                    0     2.88852   2.38647   0.55215  L 
 H                    0     3.60231   1.31827  -0.65837  L 
 H                    0     3.35295  -1.81897   1.18715  L 
 H                    0     3.8574   -1.02795  -0.30762  L 
 H                    0     2.35621  -3.36076  -0.65434  L 
 H                    0     2.54314  -2.18768  -1.97271  L 
 H                    0     0.93124  -2.80582  -1.55627  L 
 H                    0     2.12019   1.62773  -2.55418  L 
 H                    0     1.68577   3.0755   -1.62427  L 
 H                    0     0.41374   2.03188  -2.27927  L 
 H                    0     2.38737   0.36036   1.96646  L 
 H                    0    -0.24392  -2.02875   0.47776  L 
 H                    0     1.08678  -2.69939   1.43405  L 
 H                    0     0.57322  -1.02883   1.69765  L 
 H                    0     0.47225   2.80507   0.59417  L 
 H                    0    -0.64373   1.60651  -0.0708   L 
 H                    0     0.32648   1.2177    1.3591   L 
 O                    0    -3.00003  -1.35165  -2.24138  H 
 O                    0    -3.36756  -3.2168   -4.79605  H 
 O                    0    -3.04032  -1.28954  -5.87793  H 
 N                    0    -0.34803  -1.34505  -4.8076   H 
 C                    0    -1.51372  -1.87058  -4.11267  H 
 C                    0    -1.9213   -0.8766   -3.01758  H 
 C                    0    -2.70778  -2.07817  -5.03014  H 
 H                    0    -1.26017  -2.82241  -3.64347  H 
 H                    0    -1.03656  -0.68076  -2.40594  H 
 H                    0    -2.23435   0.05809  -3.49249  H 
 H                    0    -0.63119  -0.54035  -5.36157  H 
 H                    0     0.00412  -2.03264  -5.46604  H 
 H                    0    -2.60669  -1.95938  -1.59732  H 
 H                    0    -4.12975  -3.25229  -5.39346  H 
 
 Add virtual bond connecting atoms H39        and O5         Dist= 2.78D+00.

 GradGradGradGradGradGradGradGradGradGradGradGradGradGradGradGradGradGrad
 Berny optimization.
 Initialization pass.
                           ----------------------------
                           !    Initial Parameters    !
                           ! (Angstroms and Degrees)  !
 --------------------------                            --------------------------
 ! Name  Definition              Value          Derivative Info.                !
 --------------------------------------------------------------------------------
 ! R1    R(1,2)                  0.962          calculate D2E/DX2 analytically  !
 ! R2    R(1,7)                  1.4201         calculate D2E/DX2 analytically  !
 ! R3    R(3,4)                  1.4952         calculate D2E/DX2 analytically  !
 ! R4    R(3,6)                  1.5317         calculate D2E/DX2 analytically  !
 ! R5    R(3,11)                 1.5298         calculate D2E/DX2 analytically  !
 ! R6    R(3,13)                 1.5339         calculate D2E/DX2 analytically  !
 ! R7    R(4,5)                  1.2724         calculate D2E/DX2 analytically  !
 ! R8    R(4,9)                  1.4957         calculate D2E/DX2 analytically  !
 ! R9    R(5,39)                 1.4701         calculate D2E/DX2 analytically  !
 ! R10   R(6,7)                  1.5209         calculate D2E/DX2 analytically  !
 ! R11   R(6,14)                 1.0941         calculate D2E/DX2 analytically  !
 ! R12   R(6,15)                 1.0951         calculate D2E/DX2 analytically  !
 ! R13   R(7,8)                  1.5156         calculate D2E/DX2 analytically  !
 ! R14   R(7,24)                 1.0972         calculate D2E/DX2 analytically  !
 ! R15   R(8,9)                  1.5309         calculate D2E/DX2 analytically  !
 ! R16   R(8,16)                 1.0927         calculate D2E/DX2 analytically  !
 ! R17   R(8,17)                 1.0952         calculate D2E/DX2 analytically  !
 ! R18   R(9,10)                 1.5292         calculate D2E/DX2 analytically  !
 ! R19   R(9,12)                 1.5354         calculate D2E/DX2 analytically  !
 ! R20   R(10,18)                1.0919         calculate D2E/DX2 analytically  !
 ! R21   R(10,19)                1.0918         calculate D2E/DX2 analytically  !
 ! R22   R(10,20)                1.0891         calculate D2E/DX2 analytically  !
 ! R23   R(11,21)                1.0916         calculate D2E/DX2 analytically  !
 ! R24   R(11,22)                1.0919         calculate D2E/DX2 analytically  !
 ! R25   R(11,23)                1.0898         calculate D2E/DX2 analytically  !
 ! R26   R(12,25)                1.092          calculate D2E/DX2 analytically  !
 ! R27   R(12,26)                1.092          calculate D2E/DX2 analytically  !
 ! R28   R(12,27)                1.0918         calculate D2E/DX2 analytically  !
 ! R29   R(13,28)                1.0921         calculate D2E/DX2 analytically  !
 ! R30   R(13,29)                1.0906         calculate D2E/DX2 analytically  !
 ! R31   R(13,30)                1.0917         calculate D2E/DX2 analytically  !
 ! R32   R(31,36)                1.4113         calculate D2E/DX2 analytically  !
 ! R33   R(31,43)                0.9689         calculate D2E/DX2 analytically  !
 ! R34   R(32,37)                1.3366         calculate D2E/DX2 analytically  !
 ! R35   R(32,44)                0.9691         calculate D2E/DX2 analytically  !
 ! R36   R(33,37)                1.2047         calculate D2E/DX2 analytically  !
 ! R37   R(34,35)                1.4553         calculate D2E/DX2 analytically  !
 ! R38   R(34,41)                1.0172         calculate D2E/DX2 analytically  !
 ! R39   R(34,42)                1.015          calculate D2E/DX2 analytically  !
 ! R40   R(35,36)                1.5341         calculate D2E/DX2 analytically  !
 ! R41   R(35,37)                1.5201         calculate D2E/DX2 analytically  !
 ! R42   R(35,38)                1.0911         calculate D2E/DX2 analytically  !
 ! R43   R(36,39)                1.0933         calculate D2E/DX2 analytically  !
 ! R44   R(36,40)                1.0942         calculate D2E/DX2 analytically  !
 ! A1    A(2,1,7)              108.1029         calculate D2E/DX2 analytically  !
 ! A2    A(4,3,6)              110.0722         calculate D2E/DX2 analytically  !
 ! A3    A(4,3,11)             107.5451         calculate D2E/DX2 analytically  !
 ! A4    A(4,3,13)             108.779          calculate D2E/DX2 analytically  !
 ! A5    A(6,3,11)             109.2199         calculate D2E/DX2 analytically  !
 ! A6    A(6,3,13)             111.7009         calculate D2E/DX2 analytically  !
 ! A7    A(11,3,13)            109.4297         calculate D2E/DX2 analytically  !
 ! A8    A(3,4,5)              116.1167         calculate D2E/DX2 analytically  !
 ! A9    A(3,4,9)              125.6075         calculate D2E/DX2 analytically  !
 ! A10   A(5,4,9)              115.3762         calculate D2E/DX2 analytically  !
 ! A11   A(3,6,7)              113.4931         calculate D2E/DX2 analytically  !
 ! A12   A(3,6,14)             107.8197         calculate D2E/DX2 analytically  !
 ! A13   A(3,6,15)             109.7903         calculate D2E/DX2 analytically  !
 ! A14   A(7,6,14)             110.6731         calculate D2E/DX2 analytically  !
 ! A15   A(7,6,15)             107.4316         calculate D2E/DX2 analytically  !
 ! A16   A(14,6,15)            107.4776         calculate D2E/DX2 analytically  !
 ! A17   A(1,7,6)              111.1247         calculate D2E/DX2 analytically  !
 ! A18   A(1,7,8)              106.7208         calculate D2E/DX2 analytically  !
 ! A19   A(1,7,24)             109.6391         calculate D2E/DX2 analytically  !
 ! A20   A(6,7,8)              108.3073         calculate D2E/DX2 analytically  !
 ! A21   A(6,7,24)             110.535          calculate D2E/DX2 analytically  !
 ! A22   A(8,7,24)             110.4386         calculate D2E/DX2 analytically  !
 ! A23   A(7,8,9)              113.4014         calculate D2E/DX2 analytically  !
 ! A24   A(7,8,16)             110.1604         calculate D2E/DX2 analytically  !
 ! A25   A(7,8,17)             107.5048         calculate D2E/DX2 analytically  !
 ! A26   A(9,8,16)             108.3376         calculate D2E/DX2 analytically  !
 ! A27   A(9,8,17)             109.7481         calculate D2E/DX2 analytically  !
 ! A28   A(16,8,17)            107.5333         calculate D2E/DX2 analytically  !
 ! A29   A(4,9,8)              110.2322         calculate D2E/DX2 analytically  !
 ! A30   A(4,9,10)             107.45           calculate D2E/DX2 analytically  !
 ! A31   A(4,9,12)             108.8415         calculate D2E/DX2 analytically  !
 ! A32   A(8,9,10)             109.399          calculate D2E/DX2 analytically  !
 ! A33   A(8,9,12)             111.4991         calculate D2E/DX2 analytically  !
 ! A34   A(10,9,12)            109.3262         calculate D2E/DX2 analytically  !
 ! A35   A(9,10,18)            108.9164         calculate D2E/DX2 analytically  !
 ! A36   A(9,10,19)            110.4057         calculate D2E/DX2 analytically  !
 ! A37   A(9,10,20)            110.7432         calculate D2E/DX2 analytically  !
 ! A38   A(18,10,19)           108.7127         calculate D2E/DX2 analytically  !
 ! A39   A(18,10,20)           108.985          calculate D2E/DX2 analytically  !
 ! A40   A(19,10,20)           109.0379         calculate D2E/DX2 analytically  !
 ! A41   A(3,11,21)            110.4366         calculate D2E/DX2 analytically  !
 ! A42   A(3,11,22)            108.8531         calculate D2E/DX2 analytically  !
 ! A43   A(3,11,23)            111.3023         calculate D2E/DX2 analytically  !
 ! A44   A(21,11,22)           108.7358         calculate D2E/DX2 analytically  !
 ! A45   A(21,11,23)           108.9241         calculate D2E/DX2 analytically  !
 ! A46   A(22,11,23)           108.5321         calculate D2E/DX2 analytically  !
 ! A47   A(9,12,25)            110.115          calculate D2E/DX2 analytically  !
 ! A48   A(9,12,26)            109.0326         calculate D2E/DX2 analytically  !
 ! A49   A(9,12,27)            112.324          calculate D2E/DX2 analytically  !
 ! A50   A(25,12,26)           108.33           calculate D2E/DX2 analytically  !
 ! A51   A(25,12,27)           108.8731         calculate D2E/DX2 analytically  !
 ! A52   A(26,12,27)           108.0666         calculate D2E/DX2 analytically  !
 ! A53   A(3,13,28)            109.26           calculate D2E/DX2 analytically  !
 ! A54   A(3,13,29)            110.279          calculate D2E/DX2 analytically  !
 ! A55   A(3,13,30)            112.4191         calculate D2E/DX2 analytically  !
 ! A56   A(28,13,29)           108.1485         calculate D2E/DX2 analytically  !
 ! A57   A(28,13,30)           108.1138         calculate D2E/DX2 analytically  !
 ! A58   A(29,13,30)           108.5064         calculate D2E/DX2 analytically  !
 ! A59   A(36,31,43)           105.4513         calculate D2E/DX2 analytically  !
 ! A60   A(37,32,44)           108.1479         calculate D2E/DX2 analytically  !
 ! A61   A(35,34,41)           108.8302         calculate D2E/DX2 analytically  !
 ! A62   A(35,34,42)           110.0615         calculate D2E/DX2 analytically  !
 ! A63   A(41,34,42)           106.2129         calculate D2E/DX2 analytically  !
 ! A64   A(34,35,36)           108.6456         calculate D2E/DX2 analytically  !
 ! A65   A(34,35,37)           112.9734         calculate D2E/DX2 analytically  !
 ! A66   A(34,35,38)           109.5265         calculate D2E/DX2 analytically  !
 ! A67   A(36,35,37)           108.0977         calculate D2E/DX2 analytically  !
 ! A68   A(36,35,38)           108.6636         calculate D2E/DX2 analytically  !
 ! A69   A(37,35,38)           108.842          calculate D2E/DX2 analytically  !
 ! A70   A(31,36,35)           112.1842         calculate D2E/DX2 analytically  !
 ! A71   A(31,36,39)           111.7875         calculate D2E/DX2 analytically  !
 ! A72   A(31,36,40)           107.913          calculate D2E/DX2 analytically  !
 ! A73   A(35,36,39)           107.4831         calculate D2E/DX2 analytically  !
 ! A74   A(35,36,40)           108.6432         calculate D2E/DX2 analytically  !
 ! A75   A(39,36,40)           108.7445         calculate D2E/DX2 analytically  !
 ! A76   A(32,37,33)           123.0007         calculate D2E/DX2 analytically  !
 ! A77   A(32,37,35)           113.4771         calculate D2E/DX2 analytically  !
 ! A78   A(33,37,35)           123.5176         calculate D2E/DX2 analytically  !
 ! A79   L(4,5,39,20,-1)       180.0            calculate D2E/DX2 analytically  !
 ! A80   L(5,39,36,34,-1)      180.0            calculate D2E/DX2 analytically  !
 ! A81   L(4,5,39,20,-2)       180.0            calculate D2E/DX2 analytically  !
 ! A82   L(5,39,36,34,-2)      180.0            calculate D2E/DX2 analytically  !
 ! D1    D(2,1,7,6)             63.0571         calculate D2E/DX2 analytically  !
 ! D2    D(2,1,7,8)           -179.0593         calculate D2E/DX2 analytically  !
 ! D3    D(2,1,7,24)           -59.4329         calculate D2E/DX2 analytically  !
 ! D4    D(6,3,4,5)           -170.2388         calculate D2E/DX2 analytically  !
 ! D5    D(6,3,4,9)             30.0193         calculate D2E/DX2 analytically  !
 ! D6    D(11,3,4,5)           -51.3502         calculate D2E/DX2 analytically  !
 ! D7    D(11,3,4,9)           148.9079         calculate D2E/DX2 analytically  !
 ! D8    D(13,3,4,5)            67.0741         calculate D2E/DX2 analytically  !
 ! D9    D(13,3,4,9)           -92.6677         calculate D2E/DX2 analytically  !
 ! D10   D(4,3,6,7)            -44.165          calculate D2E/DX2 analytically  !
 ! D11   D(4,3,6,14)          -167.1258         calculate D2E/DX2 analytically  !
 ! D12   D(4,3,6,15)            76.0704         calculate D2E/DX2 analytically  !
 ! D13   D(11,3,6,7)          -162.0231         calculate D2E/DX2 analytically  !
 ! D14   D(11,3,6,14)           75.0161         calculate D2E/DX2 analytically  !
 ! D15   D(11,3,6,15)          -41.7876         calculate D2E/DX2 analytically  !
 ! D16   D(13,3,6,7)            76.7855         calculate D2E/DX2 analytically  !
 ! D17   D(13,3,6,14)          -46.1753         calculate D2E/DX2 analytically  !
 ! D18   D(13,3,6,15)         -162.9791         calculate D2E/DX2 analytically  !
 ! D19   D(4,3,11,21)          -55.6766         calculate D2E/DX2 analytically  !
 ! D20   D(4,3,11,22)         -174.9809         calculate D2E/DX2 analytically  !
 ! D21   D(4,3,11,23)           65.4397         calculate D2E/DX2 analytically  !
 ! D22   D(6,3,11,21)           63.7574         calculate D2E/DX2 analytically  !
 ! D23   D(6,3,11,22)          -55.547          calculate D2E/DX2 analytically  !
 ! D24   D(6,3,11,23)         -175.1264         calculate D2E/DX2 analytically  !
 ! D25   D(13,3,11,21)        -173.6809         calculate D2E/DX2 analytically  !
 ! D26   D(13,3,11,22)          67.0148         calculate D2E/DX2 analytically  !
 ! D27   D(13,3,11,23)         -52.5646         calculate D2E/DX2 analytically  !
 ! D28   D(4,3,13,28)         -175.8114         calculate D2E/DX2 analytically  !
 ! D29   D(4,3,13,29)          -57.0701         calculate D2E/DX2 analytically  !
 ! D30   D(4,3,13,30)           64.161          calculate D2E/DX2 analytically  !
 ! D31   D(6,3,13,28)           62.4888         calculate D2E/DX2 analytically  !
 ! D32   D(6,3,13,29)         -178.7699         calculate D2E/DX2 analytically  !
 ! D33   D(6,3,13,30)          -57.5388         calculate D2E/DX2 analytically  !
 ! D34   D(11,3,13,28)         -58.5808         calculate D2E/DX2 analytically  !
 ! D35   D(11,3,13,29)          60.1605         calculate D2E/DX2 analytically  !
 ! D36   D(11,3,13,30)        -178.6085         calculate D2E/DX2 analytically  !
 ! D37   D(3,4,36,31)         -101.5692         calculate D2E/DX2 analytically  !
 ! D38   D(3,4,36,35)          134.9109         calculate D2E/DX2 analytically  !
 ! D39   D(3,4,36,40)           17.4713         calculate D2E/DX2 analytically  !
 ! D40   D(9,4,36,31)           60.2767         calculate D2E/DX2 analytically  !
 ! D41   D(9,4,36,35)          -63.2432         calculate D2E/DX2 analytically  !
 ! D42   D(9,4,36,40)          179.3172         calculate D2E/DX2 analytically  !
 ! D43   D(3,4,9,8)            -30.1029         calculate D2E/DX2 analytically  !
 ! D44   D(3,4,9,10)          -149.2411         calculate D2E/DX2 analytically  !
 ! D45   D(3,4,9,12)            92.4766         calculate D2E/DX2 analytically  !
 ! D46   D(5,4,9,8)            170.024          calculate D2E/DX2 analytically  !
 ! D47   D(5,4,9,10)            50.8858         calculate D2E/DX2 analytically  !
 ! D48   D(5,4,9,12)           -67.3966         calculate D2E/DX2 analytically  !
 ! D49   D(3,6,7,1)            178.2629         calculate D2E/DX2 analytically  !
 ! D50   D(3,6,7,8)             61.3451         calculate D2E/DX2 analytically  !
 ! D51   D(3,6,7,24)           -59.7668         calculate D2E/DX2 analytically  !
 ! D52   D(14,6,7,1)           -60.3604         calculate D2E/DX2 analytically  !
 ! D53   D(14,6,7,8)          -177.2782         calculate D2E/DX2 analytically  !
 ! D54   D(14,6,7,24)           61.6099         calculate D2E/DX2 analytically  !
 ! D55   D(15,6,7,1)            56.7002         calculate D2E/DX2 analytically  !
 ! D56   D(15,6,7,8)           -60.2176         calculate D2E/DX2 analytically  !
 ! D57   D(15,6,7,24)          178.6704         calculate D2E/DX2 analytically  !
 ! D58   D(1,7,8,9)            178.9311         calculate D2E/DX2 analytically  !
 ! D59   D(1,7,8,16)            57.3251         calculate D2E/DX2 analytically  !
 ! D60   D(1,7,8,17)           -59.5662         calculate D2E/DX2 analytically  !
 ! D61   D(6,7,8,9)            -61.3487         calculate D2E/DX2 analytically  !
 ! D62   D(6,7,8,16)           177.0453         calculate D2E/DX2 analytically  !
 ! D63   D(6,7,8,17)            60.154          calculate D2E/DX2 analytically  !
 ! D64   D(24,7,8,9)            59.8229         calculate D2E/DX2 analytically  !
 ! D65   D(24,7,8,16)          -61.7831         calculate D2E/DX2 analytically  !
 ! D66   D(24,7,8,17)         -178.6744         calculate D2E/DX2 analytically  !
 ! D67   D(7,8,9,4)             44.3545         calculate D2E/DX2 analytically  !
 ! D68   D(7,8,9,10)           162.2989         calculate D2E/DX2 analytically  !
 ! D69   D(7,8,9,12)           -76.6497         calculate D2E/DX2 analytically  !
 ! D70   D(16,8,9,4)           166.9748         calculate D2E/DX2 analytically  !
 ! D71   D(16,8,9,10)          -75.0809         calculate D2E/DX2 analytically  !
 ! D72   D(16,8,9,12)           45.9705         calculate D2E/DX2 analytically  !
 ! D73   D(17,8,9,4)           -75.8832         calculate D2E/DX2 analytically  !
 ! D74   D(17,8,9,10)           42.0611         calculate D2E/DX2 analytically  !
 ! D75   D(17,8,9,12)          163.1125         calculate D2E/DX2 analytically  !
 ! D76   D(4,9,10,18)          176.3255         calculate D2E/DX2 analytically  !
 ! D77   D(4,9,10,19)           57.0288         calculate D2E/DX2 analytically  !
 ! D78   D(4,9,10,20)          -63.8384         calculate D2E/DX2 analytically  !
 ! D79   D(8,9,10,18)           56.6546         calculate D2E/DX2 analytically  !
 ! D80   D(8,9,10,19)          -62.6421         calculate D2E/DX2 analytically  !
 ! D81   D(8,9,10,20)          176.4908         calculate D2E/DX2 analytically  !
 ! D82   D(12,9,10,18)         -65.7059         calculate D2E/DX2 analytically  !
 ! D83   D(12,9,10,19)         174.9974         calculate D2E/DX2 analytically  !
 ! D84   D(12,9,10,20)          54.1303         calculate D2E/DX2 analytically  !
 ! D85   D(4,9,12,25)           57.8071         calculate D2E/DX2 analytically  !
 ! D86   D(4,9,12,26)          176.5335         calculate D2E/DX2 analytically  !
 ! D87   D(4,9,12,27)          -63.712          calculate D2E/DX2 analytically  !
 ! D88   D(8,9,12,25)          179.6196         calculate D2E/DX2 analytically  !
 ! D89   D(8,9,12,26)          -61.6541         calculate D2E/DX2 analytically  !
 ! D90   D(8,9,12,27)           58.1005         calculate D2E/DX2 analytically  !
 ! D91   D(10,9,12,25)         -59.2866         calculate D2E/DX2 analytically  !
 ! D92   D(10,9,12,26)          59.4398         calculate D2E/DX2 analytically  !
 ! D93   D(10,9,12,27)         179.1943         calculate D2E/DX2 analytically  !
 ! D94   D(43,31,36,35)         80.9531         calculate D2E/DX2 analytically  !
 ! D95   D(43,31,36,39)        -39.8702         calculate D2E/DX2 analytically  !
 ! D96   D(43,31,36,40)       -159.4019         calculate D2E/DX2 analytically  !
 ! D97   D(44,32,37,33)         -1.6304         calculate D2E/DX2 analytically  !
 ! D98   D(44,32,37,35)        177.6142         calculate D2E/DX2 analytically  !
 ! D99   D(41,34,35,36)        -70.3899         calculate D2E/DX2 analytically  !
 ! D100  D(41,34,35,37)         49.5527         calculate D2E/DX2 analytically  !
 ! D101  D(41,34,35,38)        171.0546         calculate D2E/DX2 analytically  !
 ! D102  D(42,34,35,36)        173.5964         calculate D2E/DX2 analytically  !
 ! D103  D(42,34,35,37)        -66.461          calculate D2E/DX2 analytically  !
 ! D104  D(42,34,35,38)         55.0409         calculate D2E/DX2 analytically  !
 ! D105  D(34,35,36,31)       -176.4423         calculate D2E/DX2 analytically  !
 ! D106  D(34,35,36,39)        -53.1653         calculate D2E/DX2 analytically  !
 ! D107  D(34,35,36,40)         64.3402         calculate D2E/DX2 analytically  !
 ! D108  D(37,35,36,31)         60.6263         calculate D2E/DX2 analytically  !
 ! D109  D(37,35,36,39)       -176.0967         calculate D2E/DX2 analytically  !
 ! D110  D(37,35,36,40)        -58.5912         calculate D2E/DX2 analytically  !
 ! D111  D(38,35,36,31)        -57.344          calculate D2E/DX2 analytically  !
 ! D112  D(38,35,36,39)         65.933          calculate D2E/DX2 analytically  !
 ! D113  D(38,35,36,40)       -176.5615         calculate D2E/DX2 analytically  !
 ! D114  D(34,35,37,32)        138.363          calculate D2E/DX2 analytically  !
 ! D115  D(34,35,37,33)        -42.3969         calculate D2E/DX2 analytically  !
 ! D116  D(36,35,37,32)       -101.3806         calculate D2E/DX2 analytically  !
 ! D117  D(36,35,37,33)         77.8595         calculate D2E/DX2 analytically  !
 ! D118  D(38,35,37,32)         16.4754         calculate D2E/DX2 analytically  !
 ! D119  D(38,35,37,33)       -164.2845         calculate D2E/DX2 analytically  !
 --------------------------------------------------------------------------------
 Trust Radius=3.00D-01 FncErr=1.00D-07 GrdErr=1.00D-06 EigMax=2.50D+02 EigMin=1.00D-04
 Number of steps in this run=    255 maximum allowed number of steps=    264.
 GradGradGradGradGradGradGradGradGradGradGradGradGradGradGradGradGradGrad

                          Input orientation:                          
 ---------------------------------------------------------------------
 Center     Atomic      Atomic             Coordinates (Angstroms)
 Number     Number       Type             X           Y           Z
 ---------------------------------------------------------------------
      1          8           0        4.431069    0.477950    1.688276
      2          1           0        4.470026    1.327140    2.138559
      3          6           0        1.443759    1.242828   -0.531190
      4          7           0        1.182867   -0.189486   -0.871628
      5          8           0        0.153151   -0.417415   -1.583483
      6          6           0        2.826607    1.386932    0.111553
      7          6           0        3.124401    0.320968    1.154661
      8          6           0        3.090873   -1.033102    0.474617
      9          6           0        1.729325   -1.372521   -0.137575
     10          6           0        1.896531   -2.504453   -1.152007
     11          6           0        1.409285    2.040658   -1.836042
     12          6           0        0.719479   -1.798773    0.937544
     13          6           0        0.330842    1.739626    0.400201
     14          1           0        2.888518    2.386466    0.552153
     15          1           0        3.602305    1.318269   -0.658369
     16          1           0        3.352953   -1.818968    1.187154
     17          1           0        3.857402   -1.027952   -0.307618
     18          1           0        2.356214   -3.360762   -0.654336
     19          1           0        2.543137   -2.187682   -1.972708
     20          1           0        0.931237   -2.805824   -1.556273
     21          1           0        2.120192    1.627725   -2.554182
     22          1           0        1.685768    3.075495   -1.624274
     23          1           0        0.413736    2.031883   -2.279274
     24          1           0        2.387373    0.360357    1.966464
     25          1           0       -0.243922   -2.028750    0.477760
     26          1           0        1.086780   -2.699386    1.434049
     27          1           0        0.573216   -1.028833    1.697652
     28          1           0        0.472249    2.805070    0.594165
     29          1           0       -0.643727    1.606512   -0.070804
     30          1           0        0.326480    1.217699    1.359102
     31          8           0       -3.000025   -1.351647   -2.241381
     32          8           0       -3.367560   -3.216798   -4.796050
     33          8           0       -3.040320   -1.289540   -5.877931
     34          7           0       -0.348028   -1.345053   -4.807604
     35          6           0       -1.513717   -1.870577   -4.112672
     36          6           0       -1.921300   -0.876597   -3.017575
     37          6           0       -2.707778   -2.078169   -5.030137
     38          1           0       -1.260175   -2.822411   -3.643472
     39          1           0       -1.036557   -0.680758   -2.405942
     40          1           0       -2.234352    0.058091   -3.492492
     41          1           0       -0.631187   -0.540349   -5.361565
     42          1           0        0.004124   -2.032635   -5.466036
     43          1           0       -2.606694   -1.959380   -1.597319
     44          1           0       -4.129746   -3.252291   -5.393462
 ---------------------------------------------------------------------
                    Distance matrix (angstroms):
                    1          2          3          4          5
     1  O    0.000000
     2  H    0.961975   0.000000
     3  C    3.799354   4.036454   0.000000
     4  N    4.189200   4.708163   1.495154   0.000000
     5  O    5.459548   5.960913   2.351467   1.272401   0.000000
     6  C    2.426232   2.610202   1.531716   2.480649   3.643650
     7  C    1.420130   1.947086   2.552739   2.852361   4.107428
     8  C    2.356347   3.200236   2.984039   2.482851   3.639376
     9  C    3.749319   4.469944   2.660175   1.495668   2.342478
    10  C    4.835889   5.668492   3.825249   2.438647   2.753411
    11  C    4.898372   5.067020   1.529823   2.440267   2.771963
    12  C    4.418480   5.027959   3.454432   2.465286   2.929924
    13  C    4.479154   4.508312   1.533911   2.462716   2.935882
    14  H    2.704195   2.477907   2.137491   3.401753   4.461493
    15  H    2.626733   2.928451   2.163605   2.858756   3.970529
    16  H    2.586366   3.471458   3.996539   3.406328   4.458645
    17  H    2.565234   3.450442   3.321460   2.859068   3.965106
    18  H    4.952632   5.851913   4.694761   3.388355   3.792109
    19  H    4.906392   5.741898   3.880078   2.656219   2.999562
    20  H    5.793021   6.576945   4.207738   2.716115   2.512102
    21  H    4.965943   5.256795   2.167534   2.647985   2.999017
    22  H    5.025625   4.996774   2.147573   3.388139   3.814577
    23  H    5.856204   6.038824   2.177005   2.739984   2.559510
    24  H    2.065892   2.302548   2.812017   3.131761   4.266005
    25  H    5.440996   6.020096   3.816997   2.690626   2.646279
    26  H    4.619996   5.306185   4.419349   3.409542   3.896736
    27  H    4.141680   4.574947   3.299398   2.770808   3.363946
    28  H    4.720680   4.533393   2.156584   3.408943   3.902356
    29  H    5.488312   5.577616   2.168368   2.683910   2.649433
    30  H    4.183687   4.217642   2.195939   2.773035   3.370823
    31  O    8.602952   9.064295   5.422479   4.552299   3.353825
    32  O   10.794270  11.408941   7.824710   6.728454   5.527435
    33  O   10.779294  11.292317   7.423442   6.641423   5.422282
    34  N    8.267984   8.865858   5.309929   4.378457   3.392145
    35  C    8.631747   9.225424   5.591687   4.538942   3.359602
    36  C    8.020749   8.502425   4.690170   3.835761   2.563360
    37  C   10.130842  10.700804   6.964539   5.999787   4.777284
    38  H    8.468186   9.137059   5.789967   4.536944   3.467715
    39  H    6.928215   7.416644   3.656070   2.742501   1.470100
    40  H    8.452484   8.846915   4.868410   4.313654   3.093638
    41  H    8.738629   9.260764   5.551365   4.855248   3.860597
    42  H    8.779810   9.437279   6.095401   5.088734   4.207774
    43  H    8.140382   8.650894   5.272280   4.244988   3.161422
    44  H   11.719781  12.314976   8.655158   7.619162   6.394973
                    6          7          8          9         10
     6  C    0.000000
     7  C    1.520866   0.000000
     8  C    2.461344   1.515615   0.000000
     9  C    2.980046   2.546373   1.530947   0.000000
    10  C    4.195772   3.848556   2.497445   1.529150   0.000000
    11  C    2.495854   3.852695   4.197009   3.825834   4.622050
    12  C    3.907808   3.213112   2.534574   1.535370   2.499932
    13  C    2.537036   3.222696   3.912969   3.454044   4.782566
    14  H    1.094088   2.164472   3.426427   3.993675   5.273451
    15  H    1.095081   2.123695   2.659730   3.319583   4.215038
    16  H    3.422244   2.152352   1.092694   2.142519   2.839494
    17  H    2.658930   2.120173   1.095210   2.162488   2.595778
    18  H    4.832024   4.173454   2.689286   2.147821   1.091902
    19  H    4.147573   4.051127   2.760882   2.166677   1.091784
    20  H    4.894208   4.683584   3.454140   2.168872   1.089058
    21  H    2.768239   4.058518   4.146787   3.872240   4.369326
    22  H    2.676911   4.168880   4.822886   4.690098   5.603863
    23  H    3.457450   4.697536   4.913768   4.231739   4.903851
    24  H    2.165058   1.097172   2.159224   2.804082   4.262971
    25  H    4.607509   4.162327   3.480256   2.168635   2.732027
    26  H    4.634004   3.654107   2.777301   2.154864   2.716870
    27  H    3.664615   2.936894   2.799005   2.196080   3.471192
    28  H    2.790525   3.676796   4.647908   4.423568   5.767905
    29  H    3.482052   4.165714   4.605679   3.809261   4.951964
    30  H    2.799224   2.945214   3.672913   3.304127   4.756590
    31  O    6.854616   7.199954   6.676613   5.176214   5.147034
    32  O    9.145852   9.490643   8.617413   7.147096   6.441827
    33  O    8.801037   9.489725   8.832449   7.463785   6.941388
    34  N    6.460662   7.098028   6.310722   5.111294   4.443607
    35  C    6.877052   7.352537   6.553383   5.154297   4.560386
    36  C    6.120264   6.655886   6.110792   4.676259   4.550394
    37  C    8.311036   8.833000   8.063426   6.642514   6.035004
    38  H    6.965670   7.219932   6.252351   4.830176   4.034016
    39  H    5.053431   5.567308   5.045537   3.643368   3.674401
    40  H    6.353603   7.097984   6.729538   5.386359   5.395248
    41  H    6.754686   7.570173   6.939565   5.792633   5.288425
    42  H    7.125261   7.688251   6.768932   5.639553   4.734412
    43  H    6.605967   6.754171   6.132958   4.612626   4.557899
    44  H   10.010916  10.405227   9.565380   8.092379   7.407106
                   11         12         13         14         15
    11  C    0.000000
    12  C    4.786423   0.000000
    13  C    2.500888   3.600006   0.000000
    14  H    2.830404   4.729639   2.642574   0.000000
    15  H    2.591929   4.535810   3.464186   1.765191   0.000000
    16  H    5.273924   2.645354   4.734558   4.278388   3.648340
    17  H    4.212567   3.462825   4.538405   3.651875   2.385970
    18  H    5.609674   2.766368   5.588214   5.896575   4.842116
    19  H    4.379858   3.456377   5.093986   5.236128   3.891146
    20  H    4.878031   2.697798   4.984915   5.936016   4.994895
    21  H    1.091617   5.088717   3.455817   3.288667   2.426217
    22  H    1.091868   5.590627   2.778285   2.580349   2.773793
    23  H    1.089793   5.011519   2.696641   3.777202   3.647403
    24  H    4.270728   2.915886   2.929997   2.521218   3.046868
    25  H    4.964560   1.091985   3.812745   5.414042   5.223676
    26  H    5.767627   1.092031   4.620077   5.467165   5.181470
    27  H    4.754764   1.091771   3.067000   4.282179   4.498344
    28  H    2.714455   4.623246   1.092149   2.452621   3.684653
    29  H    2.742154   3.804085   1.090573   3.670580   4.296173
    30  H    3.472560   3.071036   1.091750   2.929372   3.848549
    31  O    5.577997   4.913267   5.256292   7.513472   7.295556
    32  O    7.695501   7.182533   8.077459   9.956824   9.287963
    33  O    6.872123   7.800392   7.743095   9.487367   8.841322
    34  N    4.835429   5.861072   6.090759   7.288790   6.317798
    35  C    5.387461   5.522409   6.066464   7.698225   6.947994
    36  C    4.582488   4.844284   4.857773   6.820916   6.394803
    37  C    6.642077   6.887479   7.300503   9.078186   8.394361
    38  H    5.834574   5.094366   6.300381   7.870662   7.049807
    39  H    3.703112   3.938594   3.949998   5.793480   5.345013
    40  H    4.466597   5.638997   4.955890   6.929956   6.609605
    41  H    4.822286   6.564047   6.270705   7.478411   6.595224
    42  H    5.634097   6.447655   6.982079   8.004173   6.876709
    43  H    5.673216   4.185063   5.128532   7.328298   7.083521
    44  H    8.446977   8.106130   8.853396  10.788974  10.153608
                   16         17         18         19         20
    16  H    0.000000
    17  H    1.764800   0.000000
    18  H    2.600327   2.795672   0.000000
    19  H    3.282755   2.417600   1.774588   0.000000
    20  H    3.790117   3.644504   1.775389   1.775877   0.000000
    21  H    5.234213   3.888132   5.343232   3.882567   4.697424
    22  H    5.885525   4.825749   6.543369   5.343924   5.929912
    23  H    5.956859   5.010873   5.957706   4.736355   4.918734
    24  H    2.507813   3.042998   4.551515   4.694022   4.955271
    25  H    3.672160   4.294098   3.133146   3.714532   2.474294
    26  H    2.443693   3.674703   2.531844   3.740162   2.996256
    27  H    2.934597   3.847985   3.761492   4.323779   3.724769
    28  H    5.480129   5.192738   6.567006   5.983727   6.026374
    29  H    5.412007   5.220790   5.832149   5.307471   4.914859
    30  H    4.290740   4.504255   5.397783   5.254631   5.005385
    31  O    7.234195   7.132217   5.936712   5.612289   4.247214
    32  O    9.105929   8.782775   7.066548   6.630737   5.398584
    33  O    9.543043   8.869915   7.790924   6.872585   6.062105
    34  N    7.061089   6.167339   5.350294   4.135879   3.787021
    35  C    7.195505   6.636066   5.399732   4.597615   3.658915
    36  C    6.810694   6.384369   5.482070   4.768845   3.740894
    37  C    8.686447   8.155166   6.814448   6.077168   5.083271
    38  H    6.754464   6.366914   4.722607   4.202322   3.026377
    39  H    5.785643   5.336136   4.664916   3.908033   3.018287
    40  H    7.525983   6.959338   6.388817   5.493419   4.687421
    41  H    7.771355   6.776988   6.247984   4.926905   4.696147
    42  H    7.451526   6.516626   5.518034   4.321338   4.091895
    43  H    6.579544   6.656983   5.242475   5.168539   3.638009
    44  H   10.067260   9.726666   8.033602   7.573792   6.366860
                   21         22         23         24         25
    21  H    0.000000
    22  H    1.774681   0.000000
    23  H    1.775080   1.770937   0.000000
    24  H    4.702536   4.556053   4.971472   0.000000
    25  H    5.305800   5.847698   4.952019   3.853282   0.000000
    26  H    5.974765   6.562117   6.051997   3.367051   1.770596
    27  H    5.246764   5.396154   5.020892   2.300712   1.776425
    28  H    3.743521   2.543075   2.976221   3.395221   4.887972
    29  H    3.715759   3.161918   2.485258   3.858877   3.698094
    30  H    4.324271   3.768236   3.729382   2.313267   3.411972
    31  O    5.932211   6.475884   4.806608   7.047055   3.930433
    32  O    7.655769   8.671173   6.941254   9.573238   6.243528
    33  O    6.796222   7.712525   5.992720   9.680731   6.982914
    34  N    4.472967   5.814737   4.286775   7.501923   5.330418
    35  C    5.279422   6.394721   4.722882   7.559858   4.765445
    36  C    4.777030   5.529128   3.802202   6.703385   4.044554
    37  C    6.570639   7.580462   5.848386   8.992185   6.034067
    38  H    5.693605   6.895000   5.312926   7.409858   4.318242
    39  H    3.913583   4.704413   3.078606   5.650235   3.280410
    40  H    4.722948   5.287940   3.518540   7.159044   4.907099
    41  H    4.489102   5.692974   4.148345   7.976402   6.038463
    42  H    5.133700   6.609089   5.181075   8.163843   5.948970
    43  H    6.010521   6.616337   5.051558   6.559149   3.145386
    44  H    8.422458   9.384448   7.633079  10.473423   7.146183
                   26         27         28         29         30
    26  H    0.000000
    27  H    1.767479   0.000000
    28  H    5.601972   3.990826   0.000000
    29  H    4.878524   3.399034   1.767520   0.000000
    30  H    3.990893   2.285257   1.768085   1.771188   0.000000
    31  O    5.659254   5.328062   6.113535   4.360534   5.534497
    32  O    7.676131   7.904750   8.947706   7.280902   8.437807
    33  O    8.513852   8.397325   8.425675   6.917623   8.366376
    34  N    6.546077   6.577769   6.861158   5.588958   6.711999
    35  C    6.181878   6.230865   6.925319   5.402196   6.547067
    36  C    5.673452   5.336586   5.685809   4.059740   5.347326
    37  C    7.521322   7.558384   8.098850   6.513997   7.803322
    38  H    5.595047   5.925019   7.254474   5.723576   6.623119
    39  H    4.830005   4.421766   4.840262   3.292232   4.431430
    40  H    6.550146   6.000120   5.618928   4.078682   5.607185
    41  H    7.334387   7.177866   6.919547   5.709757   7.012505
    42  H    7.016257   7.256025   7.768434   6.540002   7.566445
    43  H    4.835137   4.672748   6.081321   4.347306   5.238107
    44  H    8.610039   8.794630   9.680995   8.005685   9.243154
                   31         32         33         34         35
    31  O    0.000000
    32  O    3.184369   0.000000
    33  O    3.637304   2.234251   0.000000
    34  N    3.690344   3.552624   2.897779   0.000000
    35  C    2.445431   2.390827   2.405049   1.455313   0.000000
    36  C    1.411311   3.275848   3.099091   2.428752   1.534065
    37  C    2.896619   1.336632   1.204688   2.481008   1.520072
    38  H    2.675086   2.434143   3.242132   2.090407   1.091064
    39  H    2.081437   4.192575   4.054675   2.585216   2.134543
    40  H    2.034428   3.702475   2.855873   2.693799   2.150279
    41  H    4.000644   3.869228   2.575237   1.017153   2.026844
    42  H    4.459490   3.635845   3.160773   1.015043   2.040023
    43  H    0.968950   3.520213   4.354349   3.973022   2.743991
    44  H    3.850238   0.969066   2.296509   4.275767   3.223844
                   36         37         38         39         40
    36  C    0.000000
    37  C    2.472393   0.000000
    38  H    2.148260   2.138292   0.000000
    39  H    1.093260   3.410591   2.483578   0.000000
    40  H    1.094162   2.674339   3.044521   1.777977   0.000000
    41  H    2.696617   2.605180   2.924940   2.986595   2.534108
    42  H    3.322444   2.747088   2.354556   3.503535   3.643732
    43  H    1.912933   3.436360   2.597052   2.180384   2.792939
    44  H    4.020696   1.879511   3.388467   5.010577   4.262023
                   41         42         43         44
    41  H    0.000000
    42  H    1.625254   0.000000
    43  H    4.481722   4.667837   0.000000
    44  H    4.426688   4.310651   4.289757   0.000000
 Stoichiometry    C12H25N2O5(2)
 Framework group  C1[X(C12H25N2O5)]
 Deg. of freedom   126
 Full point group                 C1      NOp   1
 Largest Abelian subgroup         C1      NOp   1
 Largest concise Abelian subgroup C1      NOp   1
                         Standard orientation:                         
 ---------------------------------------------------------------------
 Center     Atomic      Atomic             Coordinates (Angstroms)
 Number     Number       Type             X           Y           Z
 ---------------------------------------------------------------------
      1          8           0        5.345445   -0.409972   -0.571041
      2          1           0        5.922297    0.275197   -0.220071
      3          6           0        2.043105    1.340969    0.110021
      4          7           0        1.220260    0.103230   -0.052509
      5          8           0       -0.025003    0.224041    0.179281
      6          6           0        3.457104    1.106924   -0.430333
      7          6           0        4.053011   -0.228119   -0.011296
      8          6           0        3.178197   -1.334838   -0.565338
      9          6           0        1.742511   -1.298187   -0.034999
     10          6           0        0.842979   -2.134180   -0.946184
     11          6           0        1.371506    2.450983   -0.700648
     12          6           0        1.658269   -1.840864    1.398795
     13          6           0        2.060160    1.731346    1.593327
     14          1           0        4.086689    1.934644   -0.090434
     15          1           0        3.444441    1.131373   -1.525068
     16          1           0        3.608303   -2.310385   -0.325970
     17          1           0        3.172452   -1.235424   -1.656012
     18          1           0        1.241840   -3.149042   -1.002881
     19          1           0        0.820432   -1.709995   -1.951943
     20          1           0       -0.172453   -2.173954   -0.554567
     21          1           0        1.249758    2.142982   -1.740812
     22          1           0        2.002669    3.341420   -0.670128
     23          1           0        0.394272    2.704884   -0.290529
     24          1           0        4.111662   -0.297175    1.082128
     25          1           0        0.627423   -1.798194    1.756522
     26          1           0        1.980763   -2.884175    1.404206
     27          1           0        2.295320   -1.285967    2.090329
     28          1           0        2.596522    2.675380    1.711249
     29          1           0        1.042310    1.870961    1.959166
     30          1           0        2.552248    0.981342    2.215630
     31          8           0       -2.880467   -0.032852    1.919532
     32          8           0       -5.394764   -1.083486    0.271904
     33          8           0       -5.342308    0.991756   -0.554230
     34          7           0       -2.809109    0.263427   -1.758207
     35          6           0       -3.284380   -0.250840   -0.482439
     36          6           0       -2.533694    0.467426    0.646241
     37          6           0       -4.773957   -0.032399   -0.272521
     38          1           0       -3.072401   -1.319179   -0.418118
     39          1           0       -1.463750    0.363624    0.447085
     40          1           0       -2.794905    1.529612    0.619424
     41          1           0       -3.141104    1.218171   -1.871531
     42          1           0       -3.213905   -0.269827   -2.521156
     43          1           0       -2.355693   -0.839648    2.031588
     44          1           0       -6.325339   -0.848443    0.405597
 ---------------------------------------------------------------------
 Rotational constants (GHZ):           0.7648159           0.1550864           0.1478836
 Standard basis: 6-311G(d,p) (5D, 7F)
 There are   511 symmetry adapted cartesian basis functions of A   symmetry.
 There are   492 symmetry adapted basis functions of A   symmetry.
   492 basis functions,   808 primitive gaussians,   511 cartesian basis functions
    76 alpha electrons       75 beta electrons
       nuclear repulsion energy      1621.3774270195 Hartrees.
 NAtoms=   44 NActive=   44 NUniq=   44 SFac= 1.00D+00 NAtFMM=   60 NAOKFM=F Big=F
 Integral buffers will be    131072 words long.
 Raffenetti 2 integral format.
 Two-electron integral symmetry is turned on.
 Force inversion solution in PCM.
 ------------------------------------------------------------------------------
 Polarizable Continuum Model (PCM)
 =================================
 Model                : PCM.
 Atomic radii         : UFF (Universal Force Field).
 Polarization charges : Total charges.
 Charge compensation  : None.
 Solution method      : Matrix inversion.
 Cavity type          : Scaled VdW (van der Waals Surface) (Alpha=1.100).
 Cavity algorithm     : GePol (No added spheres)
                        Default sphere list used, NSphG=   44.
                        Lebedev-Laikov grids with approx.  5.0 points / Ang**2.
                        Smoothing algorithm: York/Karplus (Gamma=1.0000).
                        Polarization charges: spherical gaussians, with
                                              point-specific exponents (IZeta= 3).
                        Self-potential: point-specific (ISelfS= 7).
                        Self-field    : sphere-specific E.n sum rule (ISelfD= 2).
 1st derivatives      : Analytical E(r).r(x)/FMM algorithm (CHGder, D1EAlg=3).
                        Cavity 1st derivative terms included.
 2nd derivatives      : Analytical E(r).r(xy)/FMM algorithm (CHGder, D2EAlg=3).
                        Cavity 2nd derivative terms included.
 Solvent              : Water, Eps=  78.355300 Eps(inf)=   1.777849
 ------------------------------------------------------------------------------
 One-electron integrals computed using PRISM.
 NBasis=   492 RedAO= T EigKep=  9.08D-04  NBF=   492
 NBsUse=   492 1.00D-06 EigRej= -1.00D+00 NBFU=   492
 ExpMin= 1.03D-01 ExpMax= 8.59D+03 ExpMxC= 1.30D+03 IAcc=3 IRadAn=         5 AccDes= 0.00D+00
 Harris functional with IExCor= 1009 and IRadAn=       5 diagonalized for initial guess.
 HarFok:  IExCor= 1009 AccDes= 0.00D+00 IRadAn=         5 IDoV= 1 UseB2=F ITyADJ=14
 ICtDFT=  3500011 ScaDFX=  1.000000  1.000000  1.000000  1.000000
 FoFCou: FMM=F IPFlag=           0 FMFlag=      100000 FMFlg1=           0
         NFxFlg=           0 DoJE=T BraDBF=F KetDBF=T FulRan=T
         wScrn=  0.000000 ICntrl=       500 IOpCl=  0 I1Cent=   200000004 NGrid=           0
         NMat0=    1 NMatS0=      1 NMatT0=    0 NMatD0=    1 NMtDS0=    0 NMtDT0=    0
 Petite list used in FoFCou.
 Initial guess <Sx>= 0.0000 <Sy>= 0.0000 <Sz>= 0.5000 <S**2>= 0.7500 S= 0.5000
 Requested convergence on RMS density matrix=1.00D-08 within 128 cycles.
 Requested convergence on MAX density matrix=1.00D-06.
 Requested convergence on             energy=1.00D-06.
 No special actions if energy rises.
 Inv3:  Mode=1 IEnd=    25177827.
 Iteration    1 A*A^-1 deviation from unit magnitude is 8.77D-15 for   2884.
 Iteration    1 A*A^-1 deviation from orthogonality  is 5.71D-15 for   2876    876.
 Iteration    1 A^-1*A deviation from unit magnitude is 8.77D-15 for   2884.
 Iteration    1 A^-1*A deviation from orthogonality  is 2.85D-15 for   2868    902.
 Error on total polarization charges =  0.01103
 SCF Done:  E(UM062X) =  -957.759850314     A.U. after   15 cycles
            NFock= 15  Conv=0.40D-08     -V/T= 2.0032
 <Sx>= 0.0000 <Sy>= 0.0000 <Sz>= 0.5000 <S**2>= 0.7547 S= 0.5024
 <L.S>= 0.000000000000E+00
 Annihilation of the first spin contaminant:
 S**2 before annihilation     0.7547,   after     0.7500
 DoSCS=F DFT=T ScalE2(SS,OS)=  1.000000  1.000000
 Range of M.O.s used for correlation:     1   492
 NBasis=   492 NAE=    76 NBE=    75 NFC=     0 NFV=     0
 NROrb=    492 NOA=    76 NOB=    75 NVA=   416 NVB=   417
 PrsmSu:  requested number of processors reduced to:  13 ShMem   1 Linda.
 Symmetrizing basis deriv contribution to polar:
 IMax=3 JMax=2 DiffMx= 0.00D+00
 G2DrvN: will do    15 centers at a time, making    3 passes.
 Calling FoFCou, ICntrl=  3107 FMM=F I1Cent=   0 AccDes= 0.00D+00.
 Calling FoFCou, ICntrl=  3107 FMM=F I1Cent=   0 AccDes= 0.00D+00.
 Calling FoFCou, ICntrl=  3107 FMM=F I1Cent=   0 AccDes= 0.00D+00.
 NEqPCM:  Using equilibrium solvation (IEInf=0, Eps=  78.3553, EpsInf=   1.7778)
 G2PCM: DoFxE=T DoFxN=T DoGrad=T DoDP/DQ/DG/TGxP=FFFF NFrqRd=   0 IEInf=0 SqF1=F DoCFld=F IF1Alg=4.
 End of G2Drv F.D. properties file   721 does not exist.
 End of G2Drv F.D. properties file   722 does not exist.
 End of G2Drv F.D. properties file   788 does not exist.
          IDoAtm=11111111111111111111111111111111111111111111
 NEqPCM:  Using equilibrium solvation (IEInf=0, Eps=  78.3553, EpsInf=   1.7778)
          Differentiating once with respect to electric field.
                with respect to dipole field.
          Differentiating once with respect to nuclear coordinates.
 CalDSu exits because no D1Ps are significant.
          There are   135 degrees of freedom in the 1st order CPHF.  IDoFFX=6 NUNeed=     3.
    135 vectors produced by pass  0 Test12= 6.29D-14 1.00D-09 XBig12= 1.51D+02 2.32D+00.
 AX will form    16 AO Fock derivatives at one time.
    135 vectors produced by pass  1 Test12= 6.29D-14 1.00D-09 XBig12= 1.07D+01 6.06D-01.
    132 vectors produced by pass  2 Test12= 6.29D-14 1.00D-09 XBig12= 5.07D-01 1.55D-01.
    132 vectors produced by pass  3 Test12= 6.29D-14 1.00D-09 XBig12= 4.82D-03 7.64D-03.
    132 vectors produced by pass  4 Test12= 6.29D-14 1.00D-09 XBig12= 3.72D-05 6.16D-04.
    132 vectors produced by pass  5 Test12= 6.29D-14 1.00D-09 XBig12= 3.25D-07 3.59D-05.
    121 vectors produced by pass  6 Test12= 6.29D-14 1.00D-09 XBig12= 2.01D-09 3.29D-06.
     41 vectors produced by pass  7 Test12= 6.29D-14 1.00D-09 XBig12= 1.01D-11 2.81D-07.
      5 vectors produced by pass  8 Test12= 6.29D-14 1.00D-09 XBig12= 7.04D-14 1.93D-08.
      3 vectors produced by pass  9 Test12= 6.29D-14 1.00D-09 XBig12= 1.09D-15 2.58D-09.
      1 vectors produced by pass 10 Test12= 6.29D-14 1.00D-09 XBig12= 1.19D-15 1.97D-09.
 InvSVY:  IOpt=1 It=  1 EMax= 2.84D-14
 Solved reduced A of dimension   969 with   135 vectors.
 Isotropic polarizability for W=    0.000000      210.57 Bohr**3.
 End of Minotr F.D. properties file   721 does not exist.
 End of Minotr F.D. properties file   722 does not exist.
 End of Minotr F.D. properties file   788 does not exist.

 **********************************************************************

            Population analysis using the SCF density.

 **********************************************************************

 Orbital symmetries:
 Alpha Orbitals:
       Occupied  (A) (A) (A) (A) (A) (A) (A) (A) (A) (A) (A) (A)
                 (A) (A) (A) (A) (A) (A) (A) (A) (A) (A) (A) (A)
                 (A) (A) (A) (A) (A) (A) (A) (A) (A) (A) (A) (A)
                 (A) (A) (A) (A) (A) (A) (A) (A) (A) (A) (A) (A)
                 (A) (A) (A) (A) (A) (A) (A) (A) (A) (A) (A) (A)
                 (A) (A) (A) (A) (A) (A) (A) (A) (A) (A) (A) (A)
                 (A) (A) (A) (A)
       Virtual   (A) (A) (A) (A) (A) (A) (A) (A) (A) (A) (A) (A)
                 (A) (A) (A) (A) (A) (A) (A) (A) (A) (A) (A) (A)
                 (A) (A) (A) (A) (A) (A) (A) (A) (A) (A) (A) (A)
                 (A) (A) (A) (A) (A) (A) (A) (A) (A) (A) (A) (A)
                 (A) (A) (A) (A) (A) (A) (A) (A) (A) (A) (A) (A)
                 (A) (A) (A) (A) (A) (A) (A) (A) (A) (A) (A) (A)
                 (A) (A) (A) (A) (A) (A) (A) (A) (A) (A) (A) (A)
                 (A) (A) (A) (A) (A) (A) (A) (A) (A) (A) (A) (A)
                 (A) (A) (A) (A) (A) (A) (A) (A) (A) (A) (A) (A)
                 (A) (A) (A) (A) (A) (A) (A) (A) (A) (A) (A) (A)
                 (A) (A) (A) (A) (A) (A) (A) (A) (A) (A) (A) (A)
                 (A) (A) (A) (A) (A) (A) (A) (A) (A) (A) (A) (A)
                 (A) (A) (A) (A) (A) (A) (A) (A) (A) (A) (A) (A)
                 (A) (A) (A) (A) (A) (A) (A) (A) (A) (A) (A) (A)
                 (A) (A) (A) (A) (A) (A) (A) (A) (A) (A) (A) (A)
                 (A) (A) (A) (A) (A) (A) (A) (A) (A) (A) (A) (A)
                 (A) (A) (A) (A) (A) (A) (A) (A) (A) (A) (A) (A)
                 (A) (A) (A) (A) (A) (A) (A) (A) (A) (A) (A) (A)
                 (A) (A) (A) (A) (A) (A) (A) (A) (A) (A) (A) (A)
                 (A) (A) (A) (A) (A) (A) (A) (A) (A) (A) (A) (A)
                 (A) (A) (A) (A) (A) (A) (A) (A) (A) (A) (A) (A)
                 (A) (A) (A) (A) (A) (A) (A) (A) (A) (A) (A) (A)
                 (A) (A) (A) (A) (A) (A) (A) (A) (A) (A) (A) (A)
                 (A) (A) (A) (A) (A) (A) (A) (A) (A) (A) (A) (A)
                 (A) (A) (A) (A) (A) (A) (A) (A) (A) (A) (A) (A)
                 (A) (A) (A) (A) (A) (A) (A) (A) (A) (A) (A) (A)
                 (A) (A) (A) (A) (A) (A) (A) (A) (A) (A) (A) (A)
                 (A) (A) (A) (A) (A) (A) (A) (A) (A) (A) (A) (A)
                 (A) (A) (A) (A) (A) (A) (A) (A) (A) (A) (A) (A)
                 (A) (A) (A) (A) (A) (A) (A) (A) (A) (A) (A) (A)
                 (A) (A) (A) (A) (A) (A) (A) (A) (A) (A) (A) (A)
                 (A) (A) (A) (A) (A) (A) (A) (A) (A) (A) (A) (A)
                 (A) (A) (A) (A) (A) (A) (A) (A) (A) (A) (A) (A)
                 (A) (A) (A) (A) (A) (A) (A) (A) (A) (A) (A) (A)
                 (A) (A) (A) (A) (A) (A) (A) (A)
 Beta  Orbitals:
       Occupied  (A) (A) (A) (A) (A) (A) (A) (A) (A) (A) (A) (A)
                 (A) (A) (A) (A) (A) (A) (A) (A) (A) (A) (A) (A)
                 (A) (A) (A) (A) (A) (A) (A) (A) (A) (A) (A) (A)
                 (A) (A) (A) (A) (A) (A) (A) (A) (A) (A) (A) (A)
                 (A) (A) (A) (A) (A) (A) (A) (A) (A) (A) (A) (A)
                 (A) (A) (A) (A) (A) (A) (A) (A) (A) (A) (A) (A)
                 (A) (A) (A)
       Virtual   (A) (A) (A) (A) (A) (A) (A) (A) (A) (A) (A) (A)
                 (A) (A) (A) (A) (A) (A) (A) (A) (A) (A) (A) (A)
                 (A) (A) (A) (A) (A) (A) (A) (A) (A) (A) (A) (A)
                 (A) (A) (A) (A) (A) (A) (A) (A) (A) (A) (A) (A)
                 (A) (A) (A) (A) (A) (A) (A) (A) (A) (A) (A) (A)
                 (A) (A) (A) (A) (A) (A) (A) (A) (A) (A) (A) (A)
                 (A) (A) (A) (A) (A) (A) (A) (A) (A) (A) (A) (A)
                 (A) (A) (A) (A) (A) (A) (A) (A) (A) (A) (A) (A)
                 (A) (A) (A) (A) (A) (A) (A) (A) (A) (A) (A) (A)
                 (A) (A) (A) (A) (A) (A) (A) (A) (A) (A) (A) (A)
                 (A) (A) (A) (A) (A) (A) (A) (A) (A) (A) (A) (A)
                 (A) (A) (A) (A) (A) (A) (A) (A) (A) (A) (A) (A)
                 (A) (A) (A) (A) (A) (A) (A) (A) (A) (A) (A) (A)
                 (A) (A) (A) (A) (A) (A) (A) (A) (A) (A) (A) (A)
                 (A) (A) (A) (A) (A) (A) (A) (A) (A) (A) (A) (A)
                 (A) (A) (A) (A) (A) (A) (A) (A) (A) (A) (A) (A)
                 (A) (A) (A) (A) (A) (A) (A) (A) (A) (A) (A) (A)
                 (A) (A) (A) (A) (A) (A) (A) (A) (A) (A) (A) (A)
                 (A) (A) (A) (A) (A) (A) (A) (A) (A) (A) (A) (A)
                 (A) (A) (A) (A) (A) (A) (A) (A) (A) (A) (A) (A)
                 (A) (A) (A) (A) (A) (A) (A) (A) (A) (A) (A) (A)
                 (A) (A) (A) (A) (A) (A) (A) (A) (A) (A) (A) (A)
                 (A) (A) (A) (A) (A) (A) (A) (A) (A) (A) (A) (A)
                 (A) (A) (A) (A) (A) (A) (A) (A) (A) (A) (A) (A)
                 (A) (A) (A) (A) (A) (A) (A) (A) (A) (A) (A) (A)
                 (A) (A) (A) (A) (A) (A) (A) (A) (A) (A) (A) (A)
                 (A) (A) (A) (A) (A) (A) (A) (A) (A) (A) (A) (A)
                 (A) (A) (A) (A) (A) (A) (A) (A) (A) (A) (A) (A)
                 (A) (A) (A) (A) (A) (A) (A) (A) (A) (A) (A) (A)
                 (A) (A) (A) (A) (A) (A) (A) (A) (A) (A) (A) (A)
                 (A) (A) (A) (A) (A) (A) (A) (A) (A) (A) (A) (A)
                 (A) (A) (A) (A) (A) (A) (A) (A) (A) (A) (A) (A)
                 (A) (A) (A) (A) (A) (A) (A) (A) (A) (A) (A) (A)
                 (A) (A) (A) (A) (A) (A) (A) (A) (A) (A) (A) (A)
                 (A) (A) (A) (A) (A) (A) (A) (A) (A)
 The electronic state is 2-A.
 Alpha  occ. eigenvalues --  -19.66728 -19.62925 -19.61909 -19.61293 -19.61068
 Alpha  occ. eigenvalues --  -14.84575 -14.72814 -10.67178 -10.59629 -10.59563
 Alpha  occ. eigenvalues --  -10.59336 -10.57122 -10.55430 -10.53991 -10.53953
 Alpha  occ. eigenvalues --  -10.53158 -10.53153 -10.52854 -10.52815  -1.24105
 Alpha  occ. eigenvalues --   -1.24076  -1.15059  -1.14440  -1.13981  -0.99986
 Alpha  occ. eigenvalues --   -0.98731  -0.93210  -0.86699  -0.83221  -0.82496
 Alpha  occ. eigenvalues --   -0.79422  -0.78488  -0.78352  -0.74935  -0.69561
 Alpha  occ. eigenvalues --   -0.69162  -0.66969  -0.63894  -0.61012  -0.59494
 Alpha  occ. eigenvalues --   -0.58838  -0.58101  -0.57335  -0.56986  -0.56303
 Alpha  occ. eigenvalues --   -0.54409  -0.53079  -0.52894  -0.51664  -0.51042
 Alpha  occ. eigenvalues --   -0.50326  -0.49966  -0.48756  -0.48347  -0.47681
 Alpha  occ. eigenvalues --   -0.46483  -0.46268  -0.45928  -0.44751  -0.44436
 Alpha  occ. eigenvalues --   -0.44308  -0.43552  -0.43139  -0.41819  -0.41047
 Alpha  occ. eigenvalues --   -0.40558  -0.40139  -0.40100  -0.38214  -0.38168
 Alpha  occ. eigenvalues --   -0.36230  -0.35043  -0.34519  -0.34015  -0.31196
 Alpha  occ. eigenvalues --   -0.27392
 Alpha virt. eigenvalues --    0.04758   0.05924   0.07349   0.08022   0.08547
 Alpha virt. eigenvalues --    0.09216   0.09517   0.09718   0.10612   0.10902
 Alpha virt. eigenvalues --    0.13255   0.13691   0.14483   0.14623   0.15698
 Alpha virt. eigenvalues --    0.15962   0.16466   0.16769   0.17521   0.17962
 Alpha virt. eigenvalues --    0.18567   0.19328   0.19984   0.20266   0.20691
 Alpha virt. eigenvalues --    0.21391   0.22123   0.22622   0.22728   0.23540
 Alpha virt. eigenvalues --    0.24622   0.25834   0.26592   0.27388   0.27646
 Alpha virt. eigenvalues --    0.28893   0.29094   0.29160   0.30019   0.30395
 Alpha virt. eigenvalues --    0.31679   0.32498   0.33809   0.34669   0.35577
 Alpha virt. eigenvalues --    0.35850   0.36739   0.36927   0.38508   0.40681
 Alpha virt. eigenvalues --    0.41347   0.41520   0.41803   0.43380   0.44541
 Alpha virt. eigenvalues --    0.45382   0.45555   0.46181   0.47036   0.47586
 Alpha virt. eigenvalues --    0.48540   0.49171   0.49862   0.50577   0.51508
 Alpha virt. eigenvalues --    0.51926   0.52193   0.53508   0.53916   0.54927
 Alpha virt. eigenvalues --    0.56203   0.57299   0.58863   0.59439   0.59853
 Alpha virt. eigenvalues --    0.60325   0.60710   0.61874   0.62119   0.62388
 Alpha virt. eigenvalues --    0.62564   0.63612   0.64163   0.64562   0.64838
 Alpha virt. eigenvalues --    0.65068   0.65556   0.65931   0.66690   0.67098
 Alpha virt. eigenvalues --    0.67430   0.67902   0.68160   0.68366   0.68822
 Alpha virt. eigenvalues --    0.69122   0.69818   0.70116   0.70814   0.71781
 Alpha virt. eigenvalues --    0.72710   0.74148   0.74395   0.74967   0.75898
 Alpha virt. eigenvalues --    0.76637   0.77736   0.77887   0.79441   0.83278
 Alpha virt. eigenvalues --    0.84722   0.85269   0.87710   0.87961   0.88776
 Alpha virt. eigenvalues --    0.90274   0.91355   0.93329   0.93767   0.95909
 Alpha virt. eigenvalues --    0.96601   0.97771   0.98239   0.98453   0.99511
 Alpha virt. eigenvalues --    1.00192   1.01626   1.03478   1.03663   1.03834
 Alpha virt. eigenvalues --    1.05782   1.07653   1.10378   1.10420   1.12435
 Alpha virt. eigenvalues --    1.13180   1.14776   1.15862   1.18403   1.19282
 Alpha virt. eigenvalues --    1.20480   1.24055   1.24770   1.25141   1.25963
 Alpha virt. eigenvalues --    1.30579   1.31864   1.32802   1.33327   1.35134
 Alpha virt. eigenvalues --    1.35438   1.36598   1.37822   1.39595   1.40315
 Alpha virt. eigenvalues --    1.42850   1.44951   1.45118   1.45642   1.46127
 Alpha virt. eigenvalues --    1.47134   1.47251   1.47542   1.48447   1.48968
 Alpha virt. eigenvalues --    1.49424   1.50449   1.50913   1.51043   1.51518
 Alpha virt. eigenvalues --    1.52255   1.53627   1.54550   1.54940   1.55065
 Alpha virt. eigenvalues --    1.55704   1.56904   1.57417   1.58081   1.59002
 Alpha virt. eigenvalues --    1.59079   1.60443   1.61951   1.62224   1.63921
 Alpha virt. eigenvalues --    1.64544   1.64976   1.65950   1.66807   1.67076
 Alpha virt. eigenvalues --    1.67649   1.68073   1.68709   1.69763   1.70799
 Alpha virt. eigenvalues --    1.71463   1.71722   1.72462   1.73756   1.74682
 Alpha virt. eigenvalues --    1.75162   1.75660   1.75956   1.76337   1.78184
 Alpha virt. eigenvalues --    1.78271   1.79427   1.79880   1.80925   1.81679
 Alpha virt. eigenvalues --    1.82102   1.83462   1.84465   1.86136   1.86930
 Alpha virt. eigenvalues --    1.87932   1.88492   1.88688   1.90139   1.90652
 Alpha virt. eigenvalues --    1.91615   1.93284   1.93399   1.94128   1.95761
 Alpha virt. eigenvalues --    1.97282   1.97607   1.98191   1.99786   2.01359
 Alpha virt. eigenvalues --    2.02181   2.03598   2.06589   2.06943   2.06981
 Alpha virt. eigenvalues --    2.08801   2.09062   2.09561   2.11707   2.13296
 Alpha virt. eigenvalues --    2.15008   2.15256   2.17015   2.18187   2.20139
 Alpha virt. eigenvalues --    2.21241   2.22005   2.23633   2.24653   2.25189
 Alpha virt. eigenvalues --    2.25997   2.26425   2.27257   2.30764   2.30882
 Alpha virt. eigenvalues --    2.32329   2.36629   2.37842   2.41261   2.41414
 Alpha virt. eigenvalues --    2.42436   2.45171   2.46782   2.47678   2.48102
 Alpha virt. eigenvalues --    2.48222   2.48795   2.49396   2.50621   2.50872
 Alpha virt. eigenvalues --    2.52846   2.53437   2.53916   2.54834   2.55958
 Alpha virt. eigenvalues --    2.56550   2.57051   2.57451   2.57833   2.58488
 Alpha virt. eigenvalues --    2.58941   2.59732   2.59914   2.61122   2.61214
 Alpha virt. eigenvalues --    2.62136   2.63663   2.64352   2.65249   2.68063
 Alpha virt. eigenvalues --    2.68262   2.68856   2.69828   2.70113   2.70748
 Alpha virt. eigenvalues --    2.72448   2.73945   2.75076   2.77328   2.79316
 Alpha virt. eigenvalues --    2.80492   2.81181   2.81967   2.85956   2.87145
 Alpha virt. eigenvalues --    2.88221   2.89296   2.89573   2.90923   2.92593
 Alpha virt. eigenvalues --    2.93331   2.94024   2.95341   2.95856   2.97166
 Alpha virt. eigenvalues --    2.98598   3.00864   3.02101   3.04647   3.04908
 Alpha virt. eigenvalues --    3.06444   3.07958   3.09726   3.11513   3.12874
 Alpha virt. eigenvalues --    3.15778   3.17705   3.20569   3.20722   3.23055
 Alpha virt. eigenvalues --    3.23704   3.24218   3.24567   3.25929   3.30252
 Alpha virt. eigenvalues --    3.31073   3.32242   3.33793   3.39399   3.40015
 Alpha virt. eigenvalues --    3.40535   3.42008   3.42528   3.51213   3.55564
 Alpha virt. eigenvalues --    3.58372   3.62317   3.65333   3.69284   3.77636
 Alpha virt. eigenvalues --    3.78218   3.80392   3.80783   3.81398   3.81963
 Alpha virt. eigenvalues --    3.82661   3.83359   3.84797   3.86164   3.86503
 Alpha virt. eigenvalues --    3.87616   3.89070   3.89904   3.91966   3.94897
 Alpha virt. eigenvalues --    3.95894   3.99630   4.01671   4.07160   4.09768
 Alpha virt. eigenvalues --    4.16156   4.21130   4.23675   4.28936   4.33359
 Alpha virt. eigenvalues --    4.37257   4.38480   4.38854   4.80131   4.87074
 Alpha virt. eigenvalues --    4.91571   4.91854   4.94146   5.02482   5.02955
 Alpha virt. eigenvalues --    5.05201   5.08359   5.14246   5.21390   5.35730
 Alpha virt. eigenvalues --    5.39787   5.41774   5.66356   5.73298   5.74915
 Alpha virt. eigenvalues --    5.85720   6.06015  23.78055  23.83353  23.86821
 Alpha virt. eigenvalues --   23.88975  23.89789  23.94620  23.96425  23.97416
 Alpha virt. eigenvalues --   24.00675  24.02900  24.03287  24.08100  35.54567
 Alpha virt. eigenvalues --   35.67352  49.96239  50.01375  50.02753  50.05108
 Alpha virt. eigenvalues --   50.12874
  Beta  occ. eigenvalues --  -19.66728 -19.61948 -19.61908 -19.61292 -19.61067
  Beta  occ. eigenvalues --  -14.83712 -14.72811 -10.67179 -10.59662 -10.59596
  Beta  occ. eigenvalues --  -10.59337 -10.57121 -10.55437 -10.53989 -10.53952
  Beta  occ. eigenvalues --  -10.53121 -10.53116 -10.52838 -10.52799  -1.24079
  Beta  occ. eigenvalues --   -1.21170  -1.15056  -1.14439  -1.13976  -0.99973
  Beta  occ. eigenvalues --   -0.97435  -0.93009  -0.85944  -0.83035  -0.81251
  Beta  occ. eigenvalues --   -0.79176  -0.78407  -0.78276  -0.74883  -0.69300
  Beta  occ. eigenvalues --   -0.68580  -0.66942  -0.63158  -0.60880  -0.59281
  Beta  occ. eigenvalues --   -0.58588  -0.57949  -0.57146  -0.56324  -0.54334
  Beta  occ. eigenvalues --   -0.53128  -0.52839  -0.52451  -0.51446  -0.50996
  Beta  occ. eigenvalues --   -0.50257  -0.49740  -0.48380  -0.47723  -0.47201
  Beta  occ. eigenvalues --   -0.46322  -0.46135  -0.45757  -0.44364  -0.43925
  Beta  occ. eigenvalues --   -0.43771  -0.43364  -0.42495  -0.41612  -0.40784
  Beta  occ. eigenvalues --   -0.40142  -0.39922  -0.38600  -0.38028  -0.37342
  Beta  occ. eigenvalues --   -0.36191  -0.34791  -0.33966  -0.33251  -0.31108
  Beta virt. eigenvalues --   -0.02473   0.04840   0.05931   0.07388   0.08019
  Beta virt. eigenvalues --    0.08556   0.09217   0.09558   0.09746   0.10687
  Beta virt. eigenvalues --    0.10939   0.13248   0.13685   0.14512   0.14616
  Beta virt. eigenvalues --    0.15747   0.16030   0.16523   0.16937   0.17539
  Beta virt. eigenvalues --    0.18044   0.18604   0.19369   0.20109   0.20413
  Beta virt. eigenvalues --    0.20911   0.21434   0.22143   0.22699   0.22979
  Beta virt. eigenvalues --    0.24010   0.24695   0.25905   0.26916   0.27574
  Beta virt. eigenvalues --    0.27741   0.28992   0.29211   0.29376   0.30245
  Beta virt. eigenvalues --    0.30426   0.31864   0.32514   0.34069   0.34785
  Beta virt. eigenvalues --    0.35660   0.36300   0.36820   0.37060   0.38725
  Beta virt. eigenvalues --    0.40844   0.41369   0.41662   0.42045   0.43620
  Beta virt. eigenvalues --    0.44646   0.45422   0.45667   0.46262   0.47094
  Beta virt. eigenvalues --    0.47629   0.48650   0.49329   0.49933   0.50639
  Beta virt. eigenvalues --    0.51578   0.52031   0.52307   0.53678   0.54141
  Beta virt. eigenvalues --    0.55065   0.56346   0.57519   0.58974   0.59499
  Beta virt. eigenvalues --    0.59983   0.60380   0.60768   0.62046   0.62177
  Beta virt. eigenvalues --    0.62435   0.62619   0.63623   0.64209   0.64703
  Beta virt. eigenvalues --    0.64943   0.65186   0.65585   0.65967   0.66733
  Beta virt. eigenvalues --    0.67172   0.67525   0.67932   0.68249   0.68418
  Beta virt. eigenvalues --    0.68844   0.69210   0.69874   0.70156   0.70863
  Beta virt. eigenvalues --    0.71943   0.72787   0.74273   0.74679   0.75041
  Beta virt. eigenvalues --    0.76017   0.76785   0.77751   0.77926   0.79450
  Beta virt. eigenvalues --    0.83286   0.85068   0.86395   0.87790   0.88140
  Beta virt. eigenvalues --    0.88860   0.90415   0.91633   0.93701   0.94244
  Beta virt. eigenvalues --    0.96251   0.96732   0.97868   0.98325   0.98603
  Beta virt. eigenvalues --    0.99726   1.00246   1.01790   1.03566   1.03743
  Beta virt. eigenvalues --    1.04195   1.05905   1.07961   1.10478   1.10898
  Beta virt. eigenvalues --    1.12617   1.14039   1.14854   1.15963   1.18687
  Beta virt. eigenvalues --    1.19281   1.20742   1.24091   1.24855   1.25237
  Beta virt. eigenvalues --    1.26074   1.30689   1.31911   1.32957   1.33599
  Beta virt. eigenvalues --    1.35345   1.35780   1.36675   1.37896   1.39744
  Beta virt. eigenvalues --    1.40366   1.42973   1.45049   1.45186   1.45685
  Beta virt. eigenvalues --    1.46207   1.47212   1.47313   1.47588   1.48482
  Beta virt. eigenvalues --    1.49068   1.49485   1.50492   1.50957   1.51091
  Beta virt. eigenvalues --    1.51584   1.52339   1.53666   1.54592   1.54968
  Beta virt. eigenvalues --    1.55169   1.55779   1.56941   1.57457   1.58132
  Beta virt. eigenvalues --    1.59068   1.59123   1.60517   1.62059   1.62244
  Beta virt. eigenvalues --    1.63937   1.64589   1.65068   1.65982   1.66846
  Beta virt. eigenvalues --    1.67119   1.67701   1.68199   1.68802   1.69828
  Beta virt. eigenvalues --    1.70885   1.71590   1.71827   1.72550   1.73797
  Beta virt. eigenvalues --    1.74754   1.75176   1.75698   1.75980   1.76356
  Beta virt. eigenvalues --    1.78227   1.78538   1.79546   1.79954   1.81005
  Beta virt. eigenvalues --    1.81711   1.82242   1.83547   1.84504   1.86195
  Beta virt. eigenvalues --    1.87284   1.88276   1.88638   1.88955   1.90270
  Beta virt. eigenvalues --    1.90815   1.91806   1.93319   1.93442   1.94199
  Beta virt. eigenvalues --    1.95763   1.97365   1.97676   1.98212   1.99828
  Beta virt. eigenvalues --    2.01403   2.02236   2.03788   2.06651   2.07008
  Beta virt. eigenvalues --    2.07127   2.09096   2.09555   2.09930   2.11811
  Beta virt. eigenvalues --    2.13321   2.15123   2.15303   2.17086   2.18239
  Beta virt. eigenvalues --    2.20173   2.21388   2.22228   2.23900   2.24846
  Beta virt. eigenvalues --    2.25250   2.26102   2.26543   2.27305   2.30901
  Beta virt. eigenvalues --    2.31264   2.32505   2.37084   2.37890   2.41348
  Beta virt. eigenvalues --    2.41536   2.42547   2.45311   2.47062   2.47704
  Beta virt. eigenvalues --    2.48132   2.48248   2.48828   2.49500   2.50691
  Beta virt. eigenvalues --    2.50920   2.52933   2.53492   2.53981   2.54974
  Beta virt. eigenvalues --    2.56023   2.56656   2.57098   2.57538   2.57898
  Beta virt. eigenvalues --    2.58530   2.59029   2.59807   2.60059   2.61227
  Beta virt. eigenvalues --    2.61305   2.62167   2.63748   2.64413   2.65330
  Beta virt. eigenvalues --    2.68115   2.68355   2.68943   2.69859   2.70195
  Beta virt. eigenvalues --    2.70810   2.72475   2.74103   2.75114   2.77434
  Beta virt. eigenvalues --    2.79535   2.80541   2.81233   2.82051   2.86133
  Beta virt. eigenvalues --    2.87414   2.88432   2.89540   2.89909   2.91411
  Beta virt. eigenvalues --    2.92671   2.93703   2.95402   2.95857   2.95977
  Beta virt. eigenvalues --    2.97241   2.98734   3.00949   3.02638   3.04890
  Beta virt. eigenvalues --    3.04997   3.06853   3.08379   3.10121   3.11543
  Beta virt. eigenvalues --    3.12888   3.15789   3.17854   3.20601   3.20775
  Beta virt. eigenvalues --    3.23628   3.23732   3.24239   3.24747   3.25986
  Beta virt. eigenvalues --    3.30270   3.31254   3.32286   3.35445   3.39496
  Beta virt. eigenvalues --    3.40148   3.40661   3.42040   3.42577   3.51808
  Beta virt. eigenvalues --    3.55702   3.58378   3.62403   3.65423   3.69617
  Beta virt. eigenvalues --    3.77682   3.78245   3.80453   3.80921   3.81475
  Beta virt. eigenvalues --    3.82011   3.82715   3.83418   3.84854   3.86185
  Beta virt. eigenvalues --    3.86547   3.87662   3.89087   3.89928   3.92141
  Beta virt. eigenvalues --    3.94904   3.96018   3.99853   4.04232   4.07434
  Beta virt. eigenvalues --    4.09885   4.16160   4.21268   4.23673   4.28952
  Beta virt. eigenvalues --    4.33353   4.37437   4.38800   4.39185   4.80136
  Beta virt. eigenvalues --    4.87440   4.92123   4.92327   4.94154   5.02599
  Beta virt. eigenvalues --    5.02958   5.06416   5.11433   5.14266   5.22459
  Beta virt. eigenvalues --    5.35733   5.39790   5.41784   5.66356   5.73301
  Beta virt. eigenvalues --    5.74917   5.85720   6.06248  23.78020  23.83353
  Beta virt. eigenvalues --   23.86775  23.88966  23.89789  23.94623  23.96423
  Beta virt. eigenvalues --   23.97428  24.00686  24.02913  24.03299  24.08103
  Beta virt. eigenvalues --   35.53964  35.67351  49.96239  50.01230  50.02183
  Beta virt. eigenvalues --   50.05018  50.12873
          Condensed to atoms (all electrons):
               1          2          3          4          5          6
     1  O    7.994183   0.320562   0.005837   0.000024   0.000000  -0.048727
     2  H    0.320562   0.434816  -0.000261   0.000024  -0.000001  -0.001796
     3  C    0.005837  -0.000261   5.577781   0.193955  -0.083345   0.186557
     4  N    0.000024   0.000024   0.193955   6.917760   0.148974  -0.038636
     5  O    0.000000  -0.000001  -0.083345   0.148974   8.389761   0.006436
     6  C   -0.048727  -0.001796   0.186557  -0.038636   0.006436   5.363159
     7  C    0.252932  -0.040267  -0.047297  -0.009547   0.000126   0.306591
     8  C   -0.055904   0.010195   0.007087  -0.032941   0.006358  -0.104210
     9  C    0.003769  -0.000738  -0.097125   0.184839  -0.082521   0.014003
    10  C   -0.000097   0.000027   0.007270  -0.071099   0.001824  -0.002828
    11  C   -0.000141  -0.000001   0.322552  -0.073259   0.003751  -0.067514
    12  C   -0.000116   0.000006  -0.001810  -0.075288  -0.003708   0.001237
    13  C   -0.000050  -0.000007   0.306041  -0.076307  -0.003579  -0.087759
    14  H   -0.000451   0.004771  -0.028170   0.004884  -0.000141   0.404278
    15  H    0.007934  -0.001110  -0.033320  -0.001096  -0.000270   0.404855
    16  H    0.004654  -0.000235  -0.001361   0.004619  -0.000137   0.011104
    17  H    0.006004  -0.000558   0.002985  -0.000894  -0.000278  -0.012543
    18  H   -0.000016   0.000001  -0.000103   0.006135   0.000421  -0.000036
    19  H   -0.000026   0.000000  -0.000152   0.001501  -0.000847   0.000290
    20  H    0.000004  -0.000001   0.000484  -0.007153   0.009217  -0.000111
    21  H   -0.000029   0.000000  -0.035541   0.001292  -0.000783  -0.008048
    22  H   -0.000018   0.000002  -0.042975   0.006105   0.000383  -0.004260
    23  H    0.000005  -0.000001  -0.032513  -0.006115   0.008775   0.008505
    24  H   -0.030268  -0.005345   0.004893  -0.001629  -0.000086  -0.060751
    25  H    0.000003  -0.000002   0.000339  -0.009137   0.011677  -0.000192
    26  H   -0.000035   0.000004  -0.000219   0.006450  -0.000097  -0.000082
[...]
 .00697842,0.00997114,-0.08062618,0.07715000,-0.00001184,-0.00002482,0.
 00001717,-0.00000859,-0.00000129,-0.00000007,0.00012979,-0.00003276,-0
 .00000303,0.00001268,0.00001686,-0.00004675,-0.00004725,-0.00001967,-0
 .00004323,0.00000563,-0.00005090,-0.00018158,0.00000947,0.00010668,0.0
 0002545,-0.00007086,0.00006563,0.00013110,-0.00001659,-0.00002085,0.00
 003975,0.00002845,0.00002448,0.00005657,-0.00004208,0.00008839,0.00017
 987,0.00002383,0.00000198,-0.00000042,-0.00008781,0.00001837,-0.000013
 06,0.00000873,0.00000937,0.00007335,-0.00016663,-0.00003041,-0.0001653
 8,-0.00002262,-0.00001843,-0.00007112,0.00015720,-0.00002185,0.0000267
 5,-0.00000806,0.00000623,-0.00001241,-0.00009778,-0.00003009,-0.000095
 13,0.00000079,0.00000300,-0.00002351,0.00012869,0.00017905,0.00030987,
 -0.00002196,-0.00005890,-0.00007176,-0.00001744,-0.00003087,-0.0000616
 6,0.00001185,-0.00006243,0.00001058,0.00000343,-0.00000176,-0.00000980
 ,-0.00000260,0.00000298,-0.00000129,-0.00000391,-0.00000527,-0.0000033
 5,0.00000312,-0.00000426,-0.00000013,-0.00000053,0.00000848,0.00001901
 ,-0.00000173,-0.00000464,-0.00002591,0.00002263,0.00100963,-0.00035922
 ,0.00034736,0.00128724,0.00004441,0.00014274,0.00199127,0.00043641,-0.
 06554353,0.03640481,-0.01160053,0.00220719,-0.03240788,0.01688285,0.00
 112724,-0.00245646,0.00027798,0.00009806,-0.00370955,0.00021822,-0.004
 88417,-0.00282612,-0.00102532,-0.00002372,0.00011363,-0.00009194,-0.00
 115584,0.00120835,0.00018679,0.06942753,0.00002529,-0.00003282,-0.0000
 0779,-0.00001354,-0.00000154,0.00000037,-0.00000789,0.00017499,-0.0000
 3116,0.00002095,0.00002285,-0.00004169,-0.00002243,-0.00007344,0.00000
 245,0.00005708,-0.00007854,-0.00009611,-0.00000376,0.00013408,0.000084
 47,-0.00009345,0.00004752,-0.00001285,-0.00000612,0.00002814,0.0001324
 7,0.00008008,0.00009925,0.00006504,-0.00013399,-0.00014574,-0.00011615
 ,0.00000871,-0.00002291,0.00000097,0.00002747,-0.00005992,0.00003486,0
 .00000819,0.00000673,0.00004889,-0.00009289,0.00008219,0.00010311,-0.0
 0001673,-0.00001508,-0.00004689,0.00019691,-0.00002193,0.00007593,-0.0
 0001477,0.00000838,-0.00004861,-0.00010945,-0.00016096,-0.00002662,-0.
 00001000,0.00001405,-0.00005408,0.00027892,-0.00000515,-0.00046333,0.0
 0001653,0.00001758,0.00004499,0.00002278,0.00006067,0.00011750,0.00002
 310,-0.00004560,0.00000944,0.00000227,-0.00000012,-0.00000581,0.000001
 56,-0.00000257,0.00000504,-0.00000609,-0.00000290,-0.00001256,-0.00000
 276,-0.00000737,-0.00001158,-0.00000297,0.00000542,0.00000564,0.000007
 13,0.00000835,0.00002750,0.00037953,0.00026073,-0.00019098,0.00028117,
 0.00110141,0.00051111,0.00147190,0.00171510,0.00047947,0.03115719,-0.3
 2238492,0.14982157,-0.00151593,-0.02263264,0.01050246,-0.00004945,0.00
 099317,-0.00022148,0.00088713,-0.00268207,0.00115534,-0.00367104,0.000
 06524,-0.00075922,0.00009482,0.00002573,-0.00008501,-0.00021954,0.0001
 7062,0.00030347,-0.02950233,0.35862087,0.00021286,-0.00009181,-0.00001
 292,-0.00006670,-0.00000551,-0.00000226,-0.00003639,0.00022278,-0.0003
 2471,0.00002044,0.00014699,0.00008877,0.00001956,-0.00022447,0.0000952
 7,0.00015410,-0.00012556,-0.00054489,-0.00023306,0.00033376,0.00004502
 ,-0.00012123,0.00008226,0.00015647,-0.00013001,0.00023749,0.00002652,0
 .00021717,0.00012537,0.00028408,-0.00042110,-0.00033973,-0.00076086,0.
 00002650,-0.00009790,-0.00000449,0.00004182,-0.00018754,0.00010617,0.0
 0008078,0.00008575,0.00027424,-0.00074512,-0.00021491,-0.00017592,-0.0
 0000429,-0.00006524,-0.00007966,0.00019660,0.00005635,-0.00013650,-0.0
 0002411,-0.00000891,-0.00010134,-0.00015729,-0.00022208,0.00003925,-0.
 00003718,0.00002846,-0.00013452,0.00084325,-0.00063441,-0.00060508,0.0
 0008444,0.00019492,0.00025181,0.00002919,0.00024116,0.00036863,0.00007
 330,-0.00014276,0.00006935,0.00000065,0.00000492,-0.00001402,0.0000101
 3,-0.00001690,0.00003329,-0.00001229,-0.00000003,-0.00003675,-0.000005
 34,-0.00000883,-0.00003228,-0.00002126,0.00001787,0.00003542,0.0000376
 0,0.00001700,0.00009600,-0.00011127,-0.00065738,-0.00002199,0.00036607
 ,0.00181371,0.00058515,0.00066940,0.00088195,0.00047635,-0.01278999,0.
 20252797,-0.11669955,-0.00359807,-0.01082286,-0.00000394,0.00054152,0.
 00166538,-0.00026776,-0.00033653,-0.00436973,0.00023232,-0.00101226,-0
 .00083640,-0.00006565,0.00007973,0.00012359,-0.00005427,0.00062805,-0.
 00027660,0.00022164,0.01299159,-0.17221440,0.11293368,0.00000433,0.000
 01753,0.00001027,-0.00000028,-0.00000178,0.00000385,0.00008499,0.00006
 329,0.00014763,-0.00001713,-0.00002923,-0.00008591,-0.00002187,0.00002
 799,0.00001378,-0.00002805,0.00000163,-0.00008520,-0.00000382,-0.00002
 746,0.00006958,-0.00001003,-0.00004330,-0.00011343,0.00011608,-0.00003
 454,0.00009820,-0.00002733,0.00002606,0.00002393,0.00009267,-0.0000836
 2,0.00007675,-0.00004145,0.00000599,0.00000314,-0.00003124,0.00000611,
 -0.00000449,-0.00001114,0.00000336,0.00001401,0.00013537,0.00009452,0.
 00014880,-0.00000351,0.00000912,0.00005611,0.00007215,0.00000874,-0.00
 011439,-0.00000368,0.00001181,-0.00002078,-0.00003311,-0.00010120,0.00
 014925,-0.00000617,-0.00000355,-0.00001418,-0.00014803,0.00017767,-0.0
 0001931,-0.00000899,-0.00004545,-0.00004486,-0.00000419,-0.00003586,-0
 .00005478,0.00001741,0.00002422,0.00000133,-0.00000289,-0.00000181,0.0
 0001560,0.00000040,0.00000350,-0.00000649,0.00000154,-0.00000231,-0.00
 000628,0.00000150,-0.00000059,-0.00000136,-0.00000164,0.00000338,0.000
 00714,-0.00000639,-0.00000057,-0.00001580,-0.00188985,0.00031145,0.000
 96976,0.00010564,0.00036795,0.00059705,0.00040333,0.00042840,-0.000155
 79,-0.28635342,0.13600989,0.11150927,-0.02550598,0.01416616,0.01283525
 ,-0.00198578,-0.00464212,-0.00272334,-0.00032024,0.00013142,0.00012894
 ,0.00137744,0.00005213,0.00018076,0.00019522,-0.00001097,0.00015653,0.
 00021291,-0.00008158,-0.00025933,-0.00190649,0.00041053,0.00276568,0.3
 1562116,-0.00000275,0.00000305,0.00001941,-0.00000142,-0.00000199,0.00
 000116,0.00008659,-0.00006038,0.00005260,-0.00002876,-0.00001452,-0.00
 001733,0.00001712,0.00002982,0.00002304,-0.00004969,0.00000417,-0.0000
 6923,-0.00000605,-0.00001328,-0.00003367,-0.00000115,-0.00006300,-0.00
 002530,0.00003458,0.00001175,-0.00001890,0.00005550,-0.00001839,0.0000
 5628,0.00014032,0.00007829,0.00025282,-0.00001683,-0.00000717,0.000001
 06,-0.00005734,0.00003263,-0.00002375,0.00000072,0.00000515,0.00002852
 ,0.00006710,-0.00008807,-0.00004914,0.00000016,0.00000338,0.00002336,-
 0.00002611,0.00013213,0.00001405,0.00000010,0.00000413,0.00000281,-0.0
 0002761,0.00004216,-0.00005733,-0.00001173,-0.00000254,-0.00003595,-0.
 00013826,0.00002887,-0.00004772,-0.00001453,-0.00004917,-0.00006074,-0
 .00002284,-0.00006368,-0.00009943,0.00000390,-0.00000218,0.00000543,0.
 00000095,-0.00000050,0.00000522,-0.00000053,0.00000190,-0.00000113,-0.
 00000056,-0.00000225,-0.00000540,0.00000309,0.00000186,0.00000598,0.00
 000165,0.00000338,0.00000944,-0.00000441,-0.00000485,-0.00002537,-0.00
 264314,0.00029176,0.00055904,-0.00003316,-0.00027740,-0.00023366,0.000
 03941,0.00024765,-0.00000937,0.14581191,-0.14381212,-0.05880730,-0.022
 55286,0.01103077,0.00843985,-0.00185695,-0.00277734,-0.00189280,-0.000
 44285,0.00018522,0.00106826,0.00031560,0.00058823,0.00045264,0.0000693
 2,-0.00011375,-0.00002680,-0.00016946,0.00038219,-0.00003616,0.0287046
 6,-0.01524155,-0.01714586,-0.14744475,0.14937022,0.00012880,0.00008810
 ,-0.00005088,-0.00001348,-0.00000802,0.00001007,0.00023163,-0.00001431
 ,0.00011981,0.00010376,-0.00007714,-0.00015052,-0.00025255,0.00008366,
 -0.00000627,-0.00000236,0.00003765,-0.00020866,-0.00019637,-0.00020514
 ,0.00023392,0.00012464,-0.00024611,-0.00071443,0.00038579,-0.00011323,
 -0.00002221,-0.00020726,0.00009863,-0.00013023,0.00009018,-0.00007755,
 0.00036548,-0.00016779,0.00007245,0.00002242,-0.00009457,0.00003090,-0
 .00001063,-0.00000908,0.00006315,0.00008174,0.00002765,-0.00028863,-0.
 00006860,0.00005077,0.00004865,0.00035867,-0.00061240,0.00024509,-0.00
 048204,0.00001674,0.00001174,0.00000940,0.00028874,-0.00000712,-0.0001
 7437,-0.00000623,-0.00004646,0.00011335,-0.00012455,0.00020280,-0.0002
 7062,-0.00002244,-0.00009014,-0.00013337,-0.00003213,-0.00005618,-0.00
 010218,0.00009072,0.00014265,0.00003867,-0.00001431,-0.00000947,0.0000
 7442,-0.00000215,0.00000246,-0.00002931,0.00001793,0.00000646,0.000004
 81,0.00000217,0.00000601,0.00000279,-0.00000635,0.00001163,0.00002530,
 -0.00000611,-0.00001135,-0.00004598,0.00083428,-0.00018337,0.00045662,
 0.00038548,0.00029581,0.00051993,0.00073054,-0.00008183,-0.00007925,0.
 15610637,-0.08051721,-0.07959594,-0.01148924,0.00115647,-0.00300096,0.
 00021305,0.00045902,0.00011610,-0.00236247,0.00039829,0.00066724,0.000
 50982,0.00001978,0.00010610,-0.00037115,0.00008688,0.00042219,-0.00010
 476,-0.00020144,-0.00010462,-0.01786202,0.01101283,0.00390598,-0.12632
 085,0.06774961,0.07761831,0.00002368,0.00000843,-0.00000518,-0.0000026
 2,-0.00000043,-0.00000130,-0.00000930,-0.00006070,-0.00001901,-0.00003
 421,-0.00000569,0.00003445,0.00005087,0.00003742,0.00004687,0.00000765
 ,0.00001144,-0.00002012,-0.00002381,-0.00001216,0.00000564,0.00000268,
 -0.00000340,-0.00001158,-0.00002192,-0.00003064,-0.00000837,0.00002622
 ,0.00000944,-0.00010689,-0.00002094,0.00001631,0.00001026,0.00001579,0
 .00002291,-0.00000205,-0.00000459,0.00001231,-0.00000958,0.00000664,0.
 00000826,0.00000953,-0.00002154,-0.00001962,0.00000547,0.00000658,0.00
 000002,0.00001207,-0.00003550,0.00001315,0.00000224,0.00002546,-0.0000
 0399,0.00004741,-0.00005226,0.00002269,-0.00001113,0.00001182,0.000004
 43,0.00000592,0.00002845,-0.00002972,0.00000777,-0.00000343,0.00000037
 ,-0.00001108,0.00000226,0.00000033,0.00000401,0.00000602,0.00000303,0.
 00000499,-0.00000210,0.00000019,-0.00000064,0.00000033,-0.00000251,0.,
 0.00000324,0.00000419,0.00001328,0.00000095,0.00000582,0.00000432,-0.0
 0000073,-0.00000148,0.00000003,0.00000108,-0.00000264,-0.00000231,-0.0
 3995334,0.04544638,-0.03219339,0.00006656,-0.00001544,-0.00069236,-0.0
 0004791,0.00061055,-0.00081314,0.00027553,0.00073852,-0.00035190,0.000
 34273,-0.00230006,0.00102319,-0.00517410,-0.04217880,0.01389839,-0.000
 38207,-0.00082110,0.00172700,-0.00065194,0.00090949,-0.00002052,0.0011
 7876,0.00040278,-0.00053540,-0.00495614,-0.00220605,-0.00124507,0.0003
 0967,0.00013752,-0.00010443,0.00001228,0.00018814,-0.00011937,0.048855
 19,0.00003050,0.00000420,-0.00000763,-0.00000357,-0.00000030,-0.000000
 85,-0.00003178,-0.00008622,-0.00001726,-0.00012975,-0.00001203,0.00006
 411,0.00018610,0.00006943,0.00014901,0.00000172,0.00001214,-0.00000806
 ,-0.00003084,-0.00000593,0.00000221,0.00000270,-0.00001293,-0.00000132
 ,-0.00006207,0.00004308,-0.00004015,0.00001527,-0.00004181,-0.00006534
 ,0.00000202,0.00001368,-0.00000512,0.00001457,-0.00000968,-0.00000712,
 0.00000516,0.00001909,-0.00001424,0.00001105,0.00000802,0.00000584,-0.
 00001920,-0.00001622,0.00000632,0.00001141,-0.00000125,0.00000930,-0.0
 0002500,0.00001100,-0.00000096,0.00001817,-0.00001282,0.00003608,-0.00
 006758,0.00006883,-0.00000374,-0.00000757,0.00000981,0.00000140,-0.000
 00144,-0.00005518,-0.00000857,0.00000374,0.00001573,0.00000443,0.00000
 203,-0.00000800,0.00000017,0.00000445,0.00000198,0.00000470,-0.0000016
 1,0.00000252,-0.00000448,0.00000343,-0.00000524,0.00000874,0.00000286,
 0.00000518,0.00000596,0.00000184,0.00000988,0.00000811,-0.00000064,-0.
 00000380,-0.00000311,0.00000254,-0.00000276,0.00000189,0.00071248,-0.4
 5914271,0.16767417,-0.00009655,-0.00021774,-0.00008552,-0.00004203,0.0
 0007551,-0.00029253,0.00119877,-0.00009377,-0.00044333,0.00013292,0.00
 273765,0.00074485,0.00147664,-0.01979969,0.00694046,-0.00031141,0.0000
 2577,0.00097569,-0.00048313,-0.00006594,0.00057623,0.00189418,0.000994
 49,-0.00033612,-0.00363193,0.00077978,-0.00175852,0.00012156,-0.000110
 88,-0.00003560,0.00016390,0.00017554,-0.00010075,-0.00105208,0.4746100
 5,-0.00000335,0.00000371,-0.00000102,0.00000221,0.00000054,0.00000013,
 -0.00000118,-0.00005255,0.00001802,-0.00005085,-0.00001018,-0.00001322
 ,0.00008164,0.00005436,0.00006504,-0.00000556,0.00000520,0.00001547,0.
 00000624,-0.00000847,-0.00000556,-0.00000749,0.00001196,0.00002353,-0.
 00001042,-0.00000499,0.00001228,0.00003404,-0.00001797,-0.00001385,-0.
 00003191,-0.00001021,0.00005140,0.00000912,-0.00000236,-0.00000487,-0.
 00000515,0.00002076,-0.00001417,0.00000093,-0.00000238,-0.00000973,0.0
 0001611,0.00000915,-0.00000477,0.00000057,0.00000006,-0.00000756,0.000
 01916,-0.00001249,0.00000046,0.00001815,0.00000460,0.00001679,-0.00001
 311,0.00002121,0.00007507,0.00001519,0.00001388,-0.00003124,0.00001041
 ,0.00001968,-0.00003000,-0.00000919,-0.00001141,-0.00002217,0.00000564
 ,-0.00000646,-0.00000645,-0.00000435,-0.00000010,-0.00000258,-0.000000
 18,0.00000093,-0.00000388,0.00000082,-0.00000114,0.00000331,0.00000072
 ,0.00000126,0.00000303,0.00000109,0.00000462,0.00000521,0.00000112,-0.
 00000183,-0.00000256,-0.00000157,-0.00000177,-0.00000622,-0.01597929,0
 .18683147,-0.07903792,-0.00073386,-0.00034838,0.00084333,0.00006323,-0
 .00082370,0.00056963,-0.00024062,-0.00029161,-0.00002221,0.00002014,0.
 00125297,0.00000683,-0.00126314,-0.01137002,0.00260724,0.00061841,0.00
 205343,-0.00137114,0.00011313,0.00000863,0.00007959,0.00006235,-0.0014
 7233,0.00056681,-0.00183770,-0.00159309,0.00057174,-0.00003059,-0.0000
 2124,-0.00004194,-0.00001271,-0.00008735,0.00006860,0.01932985,-0.1739
 9534,0.07518828,0.00000408,0.00000089,0.00000036,-0.00000145,-0.000000
 75,-0.00000060,0.00000491,-0.00000245,-0.00000914,0.00002099,0.0000036
 4,0.00000222,-0.00002991,-0.00000790,-0.00001713,0.00000373,0.00000215
 ,-0.00001493,-0.00000578,0.00000047,0.00000383,0.00000439,-0.00000481,
 -0.00001084,0.00000291,-0.00000060,-0.00000907,-0.00000637,0.00000242,
 0.00000030,-0.00000972,-0.00000379,-0.00000042,-0.00000261,0.00000289,
 0.00000086,-0.00000258,-0.00000186,0.00000176,0.00000114,0.00000230,0.
 00000619,-0.00001167,-0.00000814,0.00000458,0.00000075,-0.00000007,0.0
 0000599,-0.00001037,0.00000731,0.00000135,-0.00000028,-0.00000006,0.00
 000064,0.00000189,-0.00000078,-0.00000377,0.00000060,-0.00000122,0.000
 00454,0.00001293,0.00000229,-0.00000704,-0.00000031,0.00000019,0.00000
 063,-0.00000006,0.00000365,0.00000363,0.00000280,0.00000067,0.00000242
 ,-0.00000036,-0.00000062,0.00000109,-0.00000028,0.,-0.00000132,0.00000
 058,0.00000033,0.00000014,0.00000018,-0.00000074,-0.00000042,0.,0.0000
 0035,0.00000147,0.00000049,-0.00000006,0.00000005,-0.00018212,0.000376
 22,0.00044342,-0.05721290,-0.00330143,-0.12250885,-0.00307498,0.005092
 51,0.00317843,-0.00013713,0.00012023,0.00061108,0.00545635,-0.00312760
 ,-0.00176165,-0.00112461,-0.00033402,-0.00142077,-0.00410824,-0.003836
 16,-0.02170666,-0.00011107,-0.00013561,0.00045736,0.00030353,-0.000203
 94,-0.00012426,0.00003365,-0.00003489,0.00001615,-0.00006405,-0.000101
 62,-0.00012250,-0.00008170,0.00001293,0.00006093,0.00013802,-0.0000218
 1,-0.00018805,0.06018461,-0.00000345,0.00000003,0.00000171,0.00000094,
 0.00000036,-0.00000032,-0.00000662,0.00000274,0.00001008,-0.00000528,-
 0.00000354,-0.00001134,0.00001078,0.00000481,0.00000963,-0.00000573,-0
 .00000558,0.00001439,0.00000631,-0.00000152,-0.00000547,-0.00000779,0.
 00000777,0.00001088,-0.00000622,-0.00000621,0.00001145,0.00000460,0.00
 000239,-0.00002800,0.00000713,-0.00000268,-0.00000192,0.00000489,0.000
 00123,-0.00000143,0.00000352,0.00000192,-0.00000141,-0.00000129,-0.000
 00269,-0.00000722,0.00001047,0.00001034,-0.00001122,-0.00000057,0.0000
 0006,-0.00000612,0.00000865,-0.00000927,-0.00000125,0.00000102,0.00000
 081,0.00000060,-0.00002904,-0.00000988,-0.00002278,0.00000097,0.000001
 79,-0.00000141,-0.00001156,0.00000272,-0.00000687,0.00000014,-0.000000
 34,-0.00000069,0.00000078,-0.00000226,-0.00000204,-0.00000299,-0.00000
 047,-0.00000167,0.00000017,-0.00000049,-0.00000152,-0.00000041,-0.0000
 0008,0.00000051,-0.00000014,0.00000019,0.00000185,-0.00000015,0.000000
 32,0.00000045,0.00000009,-0.00000031,-0.00000133,-0.00000025,0.0000001
 1,0.00000035,0.00004572,0.00009343,0.00029968,0.01061876,-0.04829381,0
 .06238941,0.00429491,0.00388173,0.00459080,-0.00089859,-0.00041739,-0.
 00140210,-0.00264356,-0.00393545,0.00154547,0.00009412,-0.00001020,-0.
 00010500,-0.01708309,-0.00069450,-0.05156480,-0.00002125,0.00033413,-0
 .00007305,-0.00001949,0.00003214,-0.00000629,-0.00001122,0.00002940,-0
 .00003583,-0.00005110,0.00006558,-0.00006230,0.00006391,-0.00004013,0.
 00000473,0.00013238,0.00001154,-0.00017108,0.00549950,0.04895128,0.000
 00090,0.00000182,-0.00000192,0.00000005,-0.00000149,0.00000017,-0.0000
 0665,-0.00000305,0.00000242,-0.00001310,-0.00000372,-0.00000273,0.0000
 1999,0.00000876,0.00001779,-0.00000256,-0.00000079,0.00001288,0.000001
 45,-0.00000283,-0.00000091,0.00000094,0.00000472,0.00000304,-0.0000112
 4,-0.00000300,0.00000103,0.00000369,0.00000283,-0.00001833,0.00000787,
 -0.00000227,-0.00000663,0.00000405,0.00000214,-0.00000107,0.00000198,0
 .00000358,-0.00000124,-0.00000026,-0.00000101,-0.00000406,0.00000194,0
 .00000382,-0.00000610,0.00000026,-0.00000144,-0.00000123,-0.00000217,-
 0.00000434,0.00000014,0.00000304,-0.00000045,0.00000707,-0.00001091,-0
 .00000723,-0.00000629,0.00000276,0.00000129,0.00000202,-0.00001098,-0.
 00000398,0.00000078,0.00000024,0.00000052,0.00000094,0.00000050,-0.000
 00277,-0.00000202,-0.00000214,0.00000080,0.00000020,0.00000017,-0.0000
 0078,-0.00000228,-0.00000058,-0.00000036,-0.00000058,0.00000069,0.0000
 0110,0.00000174,0.00000061,-0.00000043,0.00000164,0.00000166,-0.000001
 19,-0.00000102,0.00000060,-0.00000053,0.00000106,0.00012239,0.00021293
 ,0.00051037,-0.13522532,0.02049690,-0.45914037,0.00376901,0.00747940,0
 .00006064,-0.00008383,-0.00066031,-0.00062346,-0.00162271,-0.00111217,
 0.00360915,-0.00007265,-0.00018000,-0.00018559,-0.01016500,-0.01118465
 ,-0.01858291,0.00018884,0.00032781,0.00050985,-0.00004545,0.00000706,0
 .00004437,0.00000367,0.00000310,-0.00004505,-0.00012850,-0.00007735,-0
 .00020410,0.00007664,0.00003912,0.00003913,0.00009214,0.00001598,-0.00
 013875,0.14309797,-0.01535752,0.47415019\\-0.00000056,0.00000184,0.000
 00306,-0.00000062,0.00000208,0.00000293,-0.00000195,0.00000072,-0.0000
 0078,0.00000018,0.00000082,0.00000074,-0.00000136,0.00000095,0.0000011
 5,-0.00000099,0.00000081,0.00000077,-0.00000086,0.00000143,0.00000170,
 -0.00000032,0.00000094,0.00000188,-0.00000153,0.00000014,0.00000084,0.
 00000068,0.,0.00000031,-0.00000090,0.00000006,-0.00000145,-0.00000196,
 0.00000124,0.00000118,-0.00000293,0.00000117,-0.00000041,-0.00000198,0
 .00000111,0.00000055,0.00000013,0.00000053,0.00000065,-0.00000026,0.00
 000158,0.00000271,0.00000035,0.00000061,0.00000178,0.00000032,0.000000
 61,0.00000167,0.00000188,-0.00000063,0.00000106,-0.00000019,0.00000010
 ,-0.00000028,-0.00000014,-0.00000075,-0.00000206,-0.00000155,-0.000000
 24,-0.00000147,-0.00000167,-0.00000084,-0.00000226,-0.00000201,0.00000
 201,0.00000218,-0.00000229,0.00000123,0.00000014,-0.00000179,0.0000017
 3,0.00000165,-0.00000250,0.00000148,0.00000107,-0.00000346,0.00000102,
 -0.00000081,-0.00000367,0.00000066,-0.00000154,-0.00000379,0.00000195,
 0.,0.00000094,-0.00000209,-0.00000251,0.00000447,-0.00000250,-0.000000
 90,0.00000405,-0.00000237,-0.00000115,0.00000238,-0.00000062,-0.000000
 35,0.00000281,-0.00000053,-0.00000044,0.00000206,-0.00000216,-0.000002
 46,0.00000390,-0.00000203,-0.00000074,0.00000246,-0.00000110,0.0000002
 6,-0.00000129,-0.00000243,-0.00000348,0.00000120,-0.00000192,-0.000002
 65,0.00000206,-0.00000094,-0.00000029,0.00000279,-0.00000050,0.0000009
 8,0.00000250,-0.00000223,-0.00000205,0.00000543,-0.00000290,-0.0000011
 5\\\@


 WHAT THE SLIME CONTAINS, THE GLOWING REVEALS
 BY THE FLAME'S BRIGHT HUE WHEN YOU IGNITE IT.
   --  LEONARD THURNEYSSER, 1531-1596
 DESCRIBING HIS FLAME PHOTOLYSIS ANALYTIC METHOD
 Job cpu time:       1 days  5 hours 33 minutes 10.5 seconds.
 Elapsed time:       0 days  1 hours 50 minutes 55.0 seconds.
 File lengths (MBytes):  RWF=   2054 Int=      0 D2E=      0 Chk=     38 Scr=      1
 Normal termination of Gaussian 16 at Sun Apr 25 11:51:25 2021.
