 Entering Gaussian System, Link 0=g16
 Input=Tem_Ser_Ca_6-2p3.gjf
 Output=Tem_Ser_Ca_6-2p3.log
 Initial command:
 /share/apps/g16/l1.exe "/backup/38995.cluster.hpc/Gau-10744.inp" -scrdir="/backup/38995.cluster.hpc/"
 Entering Link 1 = /share/apps/g16/l1.exe PID=     10745.
  
 Copyright (c) 1988,1990,1992,1993,1995,1998,2003,2009,2016,
            Gaussian, Inc.  All Rights Reserved.
  
 This is part of the Gaussian(R) 16 program.  It is based on
 the Gaussian(R) 09 system (copyright 2009, Gaussian, Inc.),
 the Gaussian(R) 03 system (copyright 2003, Gaussian, Inc.),
 the Gaussian(R) 98 system (copyright 1998, Gaussian, Inc.),
 the Gaussian(R) 94 system (copyright 1995, Gaussian, Inc.),
 the Gaussian 92(TM) system (copyright 1992, Gaussian, Inc.),
 the Gaussian 90(TM) system (copyright 1990, Gaussian, Inc.),
 the Gaussian 88(TM) system (copyright 1988, Gaussian, Inc.),
 the Gaussian 86(TM) system (copyright 1986, Carnegie Mellon
 University), and the Gaussian 82(TM) system (copyright 1983,
 Carnegie Mellon University). Gaussian is a federally registered
 trademark of Gaussian, Inc.
  
 This software contains proprietary and confidential information,
 including trade secrets, belonging to Gaussian, Inc.
  
 This software is provided under written license and may be
 used, copied, transmitted, or stored only in accord with that
 written license.
  
 The following legend is applicable only to US Government
 contracts under FAR:
  
                    RESTRICTED RIGHTS LEGEND
  
 Use, reproduction and disclosure by the US Government is
 subject to restrictions as set forth in subparagraphs (a)
 and (c) of the Commercial Computer Software - Restricted
 Rights clause in FAR 52.227-19.
  
 Gaussian, Inc.
 340 Quinnipiac St., Bldg. 40, Wallingford CT 06492
  
  
 ---------------------------------------------------------------
 Warning -- This program may not be used in any manner that
 competes with the business of Gaussian, Inc. or will provide
 assistance to any competitor of Gaussian, Inc.  The licensee
 of this program is prohibited from giving any competitor of
 Gaussian, Inc. access to this program.  By using this program,
 the user acknowledges that Gaussian, Inc. is engaged in the
 business of creating and licensing software in the field of
 computational chemistry and represents and warrants to the
 licensee that it is not a competitor of Gaussian, Inc. and that
 it will not use this program in any manner prohibited above.
 ---------------------------------------------------------------
  

 Cite this work as:
 Gaussian 16, Revision A.03,
 M. J. Frisch, G. W. Trucks, H. B. Schlegel, G. E. Scuseria, 
 M. A. Robb, J. R. Cheeseman, G. Scalmani, V. Barone, 
 G. A. Petersson, H. Nakatsuji, X. Li, M. Caricato, A. V. Marenich, 
 J. Bloino, B. G. Janesko, R. Gomperts, B. Mennucci, H. P. Hratchian, 
 J. V. Ortiz, A. F. Izmaylov, J. L. Sonnenberg, D. Williams-Young, 
 F. Ding, F. Lipparini, F. Egidi, J. Goings, B. Peng, A. Petrone, 
 T. Henderson, D. Ranasinghe, V. G. Zakrzewski, J. Gao, N. Rega, 
 G. Zheng, W. Liang, M. Hada, M. Ehara, K. Toyota, R. Fukuda, 
 J. Hasegawa, M. Ishida, T. Nakajima, Y. Honda, O. Kitao, H. Nakai, 
 T. Vreven, K. Throssell, J. A. Montgomery, Jr., J. E. Peralta, 
 F. Ogliaro, M. J. Bearpark, J. J. Heyd, E. N. Brothers, K. N. Kudin, 
 V. N. Staroverov, T. A. Keith, R. Kobayashi, J. Normand, 
 K. Raghavachari, A. P. Rendell, J. C. Burant, S. S. Iyengar, 
 J. Tomasi, M. Cossi, J. M. Millam, M. Klene, C. Adamo, R. Cammi, 
 J. W. Ochterski, R. L. Martin, K. Morokuma, O. Farkas, 
 J. B. Foresman, and D. J. Fox, Gaussian, Inc., Wallingford CT, 2016.
 
 ******************************************
 Gaussian 16:  ES64L-G16RevA.03 25-Dec-2016
                 4-May-2021 
 ******************************************
 %mem=2GB
 %nprocshared=16
 Will use up to   16 processors via shared memory.
 %chk=Tem_Ser_Ca_6-2p3.chk
 -----------------------------------------------------
 # opt freq 6-311g(d,p) scrf=(solvent=water,pcm) m062x
 -----------------------------------------------------
 1/18=20,19=15,26=3,38=1/1,3;
 2/9=110,12=2,17=6,18=5,40=1/2;
 3/5=4,6=6,7=101,11=2,25=1,30=1,70=2201,71=1,72=1,74=-55/1,2,3;
 4//1;
 5/5=2,38=5,53=1/2;
 6/7=2,8=2,9=2,10=2,28=1/1;
 7//1,2,3,16;
 1/18=20,19=15,26=3/3(2);
 2/9=110/2;
 99//99;
 2/9=110/2;
 3/5=4,6=6,7=101,11=2,25=1,30=1,70=2205,71=1,72=1,74=-55/1,2,3;
 4/5=5,16=3,69=1/1;
 5/5=2,38=5,53=1/2;
 7//1,2,3,16;
 1/18=20,19=15,26=3/3(-5);
 2/9=110/2;
 6/7=2,8=2,9=2,10=2,19=2,28=1/1;
 99/9=1/99;
 -------------------
 Title Card Required
 -------------------
 Symbolic Z-matrix:
 Charge =  0 Multiplicity = 2
 O                    0     5.2382    0.08775  -0.48058  L 
 H                    0     5.68884   0.83488  -0.07563  L 
 C                    0     1.67417   1.23634   0.1683   L 
 N                    0     1.07169  -0.09311  -0.15002  L 
 O                    0    -0.19205  -0.18439  -0.03283  L 
 C                    0     3.12691   1.27064  -0.3165   L 
 C                    0     3.9221    0.02629   0.05012  L 
 C                    0     3.25604  -1.18079  -0.58063  L 
 C                    0     1.81149  -1.39149  -0.12075  L 
 C                    0     1.10564  -2.34466  -1.0858   L 
 C                    0     0.86695   2.30169  -0.57636  L 
 C                    0     1.74183  -1.9642    1.30235  L 
 C                    0     1.57324   1.48354   1.68044  L 
 H                    0     3.59991   2.16481   0.10115  L 
 H                    0     3.1476    1.36559  -1.40738  L 
 H                    0     3.82495  -2.08544  -0.35185  L 
 H                    0     3.27939  -1.04077  -1.66668  L 
 H                    0     1.687    -3.266    -1.15778  L 
 H                    0     1.03353  -1.8973   -2.07907  L 
 H                    0     0.10436  -2.58541  -0.7313   L 
 H                    0     0.79758   2.05484  -1.63758  L 
 H                    0     1.37517   3.26244  -0.47279  L 
 H                    0    -0.13726   2.39629  -0.16419  L 
 H                    0     3.9709   -0.09053   1.13948  L 
 H                    0     0.70263  -1.98494   1.6351   L 
 H                    0     2.12824  -2.98546   1.29598  L 
 H                    0     2.32859  -1.38468   2.01536  L 
 H                    0     1.87943   2.50961   1.89437  L 
 H                    0     0.54036   1.35714   2.01108  L 
 H                    0     2.20928   0.81195   2.25721  L 
 O                    0    -3.70874   1.18049   2.12659  H 
 O                    0    -2.84938  -1.77136   2.12201  H 
 O                    0    -4.95541  -2.02451   1.41794  H 
 N                    0    -4.1634   -0.69512  -1.01757  H 
 C                    0    -3.56011  -0.42765   0.27949  H 
 C                    0    -4.10701   0.90917   0.8014   H 
 C                    0    -3.87904  -1.49298   1.31631  H 
 H                    0    -2.47632  -0.34937   0.17899  H 
 H                    0    -3.78956   1.69413   0.10573  H 
 H                    0    -5.19957   0.8633    0.79375  H 
 H                    0    -5.12843  -0.98076  -0.87067  H 
 H                    0    -3.7001   -1.48204  -1.46013  H 
 H                    0    -4.47878   1.15801   2.71892  H 
 H                    0    -3.14632  -2.42064   2.77699  H 
 
 Add virtual bond connecting atoms H38        and O5         Dist= 4.35D+00.

 GradGradGradGradGradGradGradGradGradGradGradGradGradGradGradGradGradGrad
 Berny optimization.
 Initialization pass.
                           ----------------------------
                           !    Initial Parameters    !
                           ! (Angstroms and Degrees)  !
 --------------------------                            --------------------------
 ! Name  Definition              Value          Derivative Info.                !
 --------------------------------------------------------------------------------
 ! R1    R(1,2)                  0.9619         estimate D2E/DX2                !
 ! R2    R(1,7)                  1.4204         estimate D2E/DX2                !
 ! R3    R(3,4)                  1.4939         estimate D2E/DX2                !
 ! R4    R(3,6)                  1.5319         estimate D2E/DX2                !
 ! R5    R(3,11)                 1.5301         estimate D2E/DX2                !
 ! R6    R(3,13)                 1.5355         estimate D2E/DX2                !
 ! R7    R(4,5)                  1.2724         estimate D2E/DX2                !
 ! R8    R(4,9)                  1.4946         estimate D2E/DX2                !
 ! R9    R(5,38)                 2.3            estimate D2E/DX2                !
 ! R10   R(6,7)                  1.5216         estimate D2E/DX2                !
 ! R11   R(6,14)                 1.0944         estimate D2E/DX2                !
 ! R12   R(6,15)                 1.0952         estimate D2E/DX2                !
 ! R13   R(7,8)                  1.5161         estimate D2E/DX2                !
 ! R14   R(7,24)                 1.0967         estimate D2E/DX2                !
 ! R15   R(8,9)                  1.5306         estimate D2E/DX2                !
 ! R16   R(8,16)                 1.0929         estimate D2E/DX2                !
 ! R17   R(8,17)                 1.0953         estimate D2E/DX2                !
 ! R18   R(9,10)                 1.5291         estimate D2E/DX2                !
 ! R19   R(9,12)                 1.5356         estimate D2E/DX2                !
 ! R20   R(10,18)                1.0918         estimate D2E/DX2                !
 ! R21   R(10,19)                1.0918         estimate D2E/DX2                !
 ! R22   R(10,20)                1.0891         estimate D2E/DX2                !
 ! R23   R(11,21)                1.0918         estimate D2E/DX2                !
 ! R24   R(11,22)                1.0918         estimate D2E/DX2                !
 ! R25   R(11,23)                1.0896         estimate D2E/DX2                !
 ! R26   R(12,25)                1.0914         estimate D2E/DX2                !
 ! R27   R(12,26)                1.0919         estimate D2E/DX2                !
 ! R28   R(12,27)                1.0902         estimate D2E/DX2                !
 ! R29   R(13,28)                1.0919         estimate D2E/DX2                !
 ! R30   R(13,29)                1.0919         estimate D2E/DX2                !
 ! R31   R(13,30)                1.0901         estimate D2E/DX2                !
 ! R32   R(31,36)                1.4101         estimate D2E/DX2                !
 ! R33   R(31,43)                0.9718         estimate D2E/DX2                !
 ! R34   R(32,37)                1.3367         estimate D2E/DX2                !
 ! R35   R(32,44)                0.9689         estimate D2E/DX2                !
 ! R36   R(33,37)                1.2048         estimate D2E/DX2                !
 ! R37   R(34,35)                1.4553         estimate D2E/DX2                !
 ! R38   R(34,41)                1.0171         estimate D2E/DX2                !
 ! R39   R(34,42)                1.0148         estimate D2E/DX2                !
 ! R40   R(35,36)                1.5358         estimate D2E/DX2                !
 ! R41   R(35,37)                1.5204         estimate D2E/DX2                !
 ! R42   R(35,38)                1.0913         estimate D2E/DX2                !
 ! R43   R(36,39)                1.0958         estimate D2E/DX2                !
 ! R44   R(36,40)                1.0936         estimate D2E/DX2                !
 ! A1    A(2,1,7)              108.0838         estimate D2E/DX2                !
 ! A2    A(4,3,6)              109.5694         estimate D2E/DX2                !
 ! A3    A(4,3,11)             107.6476         estimate D2E/DX2                !
 ! A4    A(4,3,13)             109.062          estimate D2E/DX2                !
 ! A5    A(6,3,11)             109.3114         estimate D2E/DX2                !
 ! A6    A(6,3,13)             111.7391         estimate D2E/DX2                !
 ! A7    A(11,3,13)            109.4208         estimate D2E/DX2                !
 ! A8    A(3,4,5)              116.407          estimate D2E/DX2                !
 ! A9    A(3,4,9)              124.6997         estimate D2E/DX2                !
 ! A10   A(5,4,9)              115.307          estimate D2E/DX2                !
 ! A11   A(3,6,7)              113.6433         estimate D2E/DX2                !
 ! A12   A(3,6,14)             107.9023         estimate D2E/DX2                !
 ! A13   A(3,6,15)             109.5779         estimate D2E/DX2                !
 ! A14   A(7,6,14)             110.5095         estimate D2E/DX2                !
 ! A15   A(7,6,15)             107.519          estimate D2E/DX2                !
 ! A16   A(14,6,15)            107.5252         estimate D2E/DX2                !
 ! A17   A(1,7,6)              111.0278         estimate D2E/DX2                !
 ! A18   A(1,7,8)              106.6233         estimate D2E/DX2                !
 ! A19   A(1,7,24)             109.5423         estimate D2E/DX2                !
 ! A20   A(6,7,8)              108.7409         estimate D2E/DX2                !
 ! A21   A(6,7,24)             110.4691         estimate D2E/DX2                !
 ! A22   A(8,7,24)             110.3653         estimate D2E/DX2                !
 ! A23   A(7,8,9)              113.5304         estimate D2E/DX2                !
 ! A24   A(7,8,16)             110.0759         estimate D2E/DX2                !
 ! A25   A(7,8,17)             107.5405         estimate D2E/DX2                !
 ! A26   A(9,8,16)             108.328          estimate D2E/DX2                !
 ! A27   A(9,8,17)             109.6121         estimate D2E/DX2                !
 ! A28   A(16,8,17)            107.5957         estimate D2E/DX2                !
 ! A29   A(4,9,8)              109.9796         estimate D2E/DX2                !
 ! A30   A(4,9,10)             107.4974         estimate D2E/DX2                !
 ! A31   A(4,9,12)             108.6432         estimate D2E/DX2                !
 ! A32   A(8,9,10)             109.3818         estimate D2E/DX2                !
 ! A33   A(8,9,12)             111.8768         estimate D2E/DX2                !
 ! A34   A(10,9,12)            109.3578         estimate D2E/DX2                !
 ! A35   A(9,10,18)            108.7746         estimate D2E/DX2                !
 ! A36   A(9,10,19)            110.4422         estimate D2E/DX2                !
 ! A37   A(9,10,20)            110.9013         estimate D2E/DX2                !
 ! A38   A(18,10,19)           108.7213         estimate D2E/DX2                !
 ! A39   A(18,10,20)           108.9327         estimate D2E/DX2                !
 ! A40   A(19,10,20)           109.0253         estimate D2E/DX2                !
 ! A41   A(3,11,21)            110.4364         estimate D2E/DX2                !
 ! A42   A(3,11,22)            108.7205         estimate D2E/DX2                !
 ! A43   A(3,11,23)            111.2584         estimate D2E/DX2                !
 ! A44   A(21,11,22)           108.7075         estimate D2E/DX2                !
 ! A45   A(21,11,23)           109.1937         estimate D2E/DX2                !
 ! A46   A(22,11,23)           108.4644         estimate D2E/DX2                !
 ! A47   A(9,12,25)            109.4416         estimate D2E/DX2                !
 ! A48   A(9,12,26)            109.1086         estimate D2E/DX2                !
 ! A49   A(9,12,27)            112.5469         estimate D2E/DX2                !
 ! A50   A(25,12,26)           108.721          estimate D2E/DX2                !
 ! A51   A(25,12,27)           108.8556         estimate D2E/DX2                !
 ! A52   A(26,12,27)           108.0904         estimate D2E/DX2                !
 ! A53   A(3,13,28)            109.0121         estimate D2E/DX2                !
 ! A54   A(3,13,29)            109.9833         estimate D2E/DX2                !
 ! A55   A(3,13,30)            112.552          estimate D2E/DX2                !
 ! A56   A(28,13,29)           108.3438         estimate D2E/DX2                !
 ! A57   A(28,13,30)           108.1595         estimate D2E/DX2                !
 ! A58   A(29,13,30)           108.6885         estimate D2E/DX2                !
 ! A59   A(36,31,43)           110.1563         estimate D2E/DX2                !
 ! A60   A(37,32,44)           108.1158         estimate D2E/DX2                !
 ! A61   A(35,34,41)           108.4343         estimate D2E/DX2                !
 ! A62   A(35,34,42)           109.9966         estimate D2E/DX2                !
 ! A63   A(41,34,42)           106.1642         estimate D2E/DX2                !
 ! A64   A(34,35,36)           108.3758         estimate D2E/DX2                !
 ! A65   A(34,35,37)           113.0826         estimate D2E/DX2                !
 ! A66   A(34,35,38)           110.0483         estimate D2E/DX2                !
 ! A67   A(36,35,37)           107.6666         estimate D2E/DX2                !
 ! A68   A(36,35,38)           108.816          estimate D2E/DX2                !
 ! A69   A(37,35,38)           108.7471         estimate D2E/DX2                !
 ! A70   A(31,36,35)           112.7235         estimate D2E/DX2                !
 ! A71   A(31,36,39)           112.1453         estimate D2E/DX2                !
 ! A72   A(31,36,40)           107.2669         estimate D2E/DX2                !
 ! A73   A(35,36,39)           107.7351         estimate D2E/DX2                !
 ! A74   A(35,36,40)           108.4752         estimate D2E/DX2                !
 ! A75   A(39,36,40)           108.3627         estimate D2E/DX2                !
 ! A76   A(32,37,33)           123.0574         estimate D2E/DX2                !
 ! A77   A(32,37,35)           113.2894         estimate D2E/DX2                !
 ! A78   A(33,37,35)           123.6466         estimate D2E/DX2                !
 ! A79   L(4,5,38,20,-1)       180.0            estimate D2E/DX2                !
 ! A80   L(5,38,35,32,-1)      180.0            estimate D2E/DX2                !
 ! A81   L(4,5,38,20,-2)       180.0            estimate D2E/DX2                !
 ! A82   L(5,38,35,32,-2)      180.0            estimate D2E/DX2                !
 ! D1    D(2,1,7,6)             63.1813         estimate D2E/DX2                !
 ! D2    D(2,1,7,8)           -178.5248         estimate D2E/DX2                !
 ! D3    D(2,1,7,24)           -59.0951         estimate D2E/DX2                !
 ! D4    D(6,3,4,5)           -167.413          estimate D2E/DX2                !
 ! D5    D(6,3,4,9)             35.0178         estimate D2E/DX2                !
 ! D6    D(11,3,4,5)           -48.6361         estimate D2E/DX2                !
 ! D7    D(11,3,4,9)           153.7947         estimate D2E/DX2                !
 ! D8    D(13,3,4,5)            69.9901         estimate D2E/DX2                !
 ! D9    D(13,3,4,9)           -87.5791         estimate D2E/DX2                !
 ! D10   D(4,3,6,7)            -45.9612         estimate D2E/DX2                !
 ! D11   D(4,3,6,14)          -168.8731         estimate D2E/DX2                !
 ! D12   D(4,3,6,15)            74.3349         estimate D2E/DX2                !
 ! D13   D(11,3,6,7)          -163.7035         estimate D2E/DX2                !
 ! D14   D(11,3,6,14)           73.3845         estimate D2E/DX2                !
 ! D15   D(11,3,6,15)          -43.4074         estimate D2E/DX2                !
 ! D16   D(13,3,6,7)            75.0293         estimate D2E/DX2                !
 ! D17   D(13,3,6,14)          -47.8827         estimate D2E/DX2                !
 ! D18   D(13,3,6,15)         -164.6746         estimate D2E/DX2                !
 ! D19   D(4,3,11,21)          -52.8064         estimate D2E/DX2                !
 ! D20   D(4,3,11,22)         -171.9942         estimate D2E/DX2                !
 ! D21   D(4,3,11,23)           68.6217         estimate D2E/DX2                !
 ! D22   D(6,3,11,21)           66.1357         estimate D2E/DX2                !
 ! D23   D(6,3,11,22)          -53.0521         estimate D2E/DX2                !
 ! D24   D(6,3,11,23)         -172.4362         estimate D2E/DX2                !
 ! D25   D(13,3,11,21)        -171.202          estimate D2E/DX2                !
 ! D26   D(13,3,11,22)          69.6102         estimate D2E/DX2                !
 ! D27   D(13,3,11,23)         -49.774          estimate D2E/DX2                !
 ! D28   D(4,3,13,28)         -171.8908         estimate D2E/DX2                !
 ! D29   D(4,3,13,29)          -53.238          estimate D2E/DX2                !
 ! D30   D(4,3,13,30)           68.1073         estimate D2E/DX2                !
 ! D31   D(6,3,13,28)           66.8243         estimate D2E/DX2                !
 ! D32   D(6,3,13,29)         -174.5229         estimate D2E/DX2                !
 ! D33   D(6,3,13,30)          -53.1776         estimate D2E/DX2                !
 ! D34   D(11,3,13,28)         -54.3794         estimate D2E/DX2                !
 ! D35   D(11,3,13,29)          64.2733         estimate D2E/DX2                !
 ! D36   D(11,3,13,30)        -174.3814         estimate D2E/DX2                !
 ! D37   D(3,4,35,34)          115.9509         estimate D2E/DX2                !
 ! D38   D(3,4,35,36)           -2.6609         estimate D2E/DX2                !
 ! D39   D(3,4,35,37)         -119.6757         estimate D2E/DX2                !
 ! D40   D(9,4,35,34)          -84.3534         estimate D2E/DX2                !
 ! D41   D(9,4,35,36)          157.0348         estimate D2E/DX2                !
 ! D42   D(9,4,35,37)           40.02           estimate D2E/DX2                !
 ! D43   D(3,4,9,8)            -34.9102         estimate D2E/DX2                !
 ! D44   D(3,4,9,10)          -153.9134         estimate D2E/DX2                !
 ! D45   D(3,4,9,12)            87.8476         estimate D2E/DX2                !
 ! D46   D(5,4,9,8)            167.3017         estimate D2E/DX2                !
 ! D47   D(5,4,9,10)            48.2985         estimate D2E/DX2                !
 ! D48   D(5,4,9,12)           -69.9405         estimate D2E/DX2                !
 ! D49   D(3,6,7,1)            177.1657         estimate D2E/DX2                !
 ! D50   D(3,6,7,8)             60.1604         estimate D2E/DX2                !
 ! D51   D(3,6,7,24)           -61.0979         estimate D2E/DX2                !
 ! D52   D(14,6,7,1)           -61.3652         estimate D2E/DX2                !
 ! D53   D(14,6,7,8)          -178.3705         estimate D2E/DX2                !
 ! D54   D(14,6,7,24)           60.3712         estimate D2E/DX2                !
 ! D55   D(15,6,7,1)            55.7141         estimate D2E/DX2                !
 ! D56   D(15,6,7,8)           -61.2912         estimate D2E/DX2                !
 ! D57   D(15,6,7,24)          177.4505         estimate D2E/DX2                !
 ! D58   D(1,7,8,9)           -179.5997         estimate D2E/DX2                !
 ! D59   D(1,7,8,16)            58.7789         estimate D2E/DX2                !
 ! D60   D(1,7,8,17)           -58.1616         estimate D2E/DX2                !
 ! D61   D(6,7,8,9)            -59.8158         estimate D2E/DX2                !
 ! D62   D(6,7,8,16)           178.5628         estimate D2E/DX2                !
 ! D63   D(6,7,8,17)            61.6223         estimate D2E/DX2                !
 ! D64   D(24,7,8,9)            61.506          estimate D2E/DX2                !
 ! D65   D(24,7,8,16)          -60.1154         estimate D2E/DX2                !
 ! D66   D(24,7,8,17)         -177.0559         estimate D2E/DX2                !
 ! D67   D(7,8,9,4)             45.6398         estimate D2E/DX2                !
 ! D68   D(7,8,9,10)           163.482          estimate D2E/DX2                !
 ! D69   D(7,8,9,12)           -75.1922         estimate D2E/DX2                !
 ! D70   D(16,8,9,4)           168.2315         estimate D2E/DX2                !
 ! D71   D(16,8,9,10)          -73.9263         estimate D2E/DX2                !
 ! D72   D(16,8,9,12)           47.3994         estimate D2E/DX2                !
 ! D73   D(17,8,9,4)           -74.6328         estimate D2E/DX2                !
 ! D74   D(17,8,9,10)           43.2094         estimate D2E/DX2                !
 ! D75   D(17,8,9,12)          164.5351         estimate D2E/DX2                !
 ! D76   D(4,9,10,18)          174.3289         estimate D2E/DX2                !
 ! D77   D(4,9,10,19)           55.0875         estimate D2E/DX2                !
 ! D78   D(4,9,10,20)          -65.8927         estimate D2E/DX2                !
 ! D79   D(8,9,10,18)           54.943          estimate D2E/DX2                !
 ! D80   D(8,9,10,19)          -64.2984         estimate D2E/DX2                !
 ! D81   D(8,9,10,20)          174.7214         estimate D2E/DX2                !
 ! D82   D(12,9,10,18)         -67.8947         estimate D2E/DX2                !
 ! D83   D(12,9,10,19)         172.8639         estimate D2E/DX2                !
 ! D84   D(12,9,10,20)          51.8837         estimate D2E/DX2                !
 ! D85   D(4,9,12,25)           51.581          estimate D2E/DX2                !
 ! D86   D(4,9,12,26)          170.4299         estimate D2E/DX2                !
 ! D87   D(4,9,12,27)          -69.5927         estimate D2E/DX2                !
 ! D88   D(8,9,12,25)          173.1857         estimate D2E/DX2                !
 ! D89   D(8,9,12,26)          -67.9654         estimate D2E/DX2                !
 ! D90   D(8,9,12,27)           52.012          estimate D2E/DX2                !
 ! D91   D(10,9,12,25)         -65.4747         estimate D2E/DX2                !
 ! D92   D(10,9,12,26)          53.3743         estimate D2E/DX2                !
 ! D93   D(10,9,12,27)         173.3517         estimate D2E/DX2                !
 ! D94   D(43,31,36,35)       -112.8382         estimate D2E/DX2                !
 ! D95   D(43,31,36,39)        125.3593         estimate D2E/DX2                !
 ! D96   D(43,31,36,40)          6.4991         estimate D2E/DX2                !
 ! D97   D(44,32,37,33)         -1.9578         estimate D2E/DX2                !
 ! D98   D(44,32,37,35)        177.1393         estimate D2E/DX2                !
 ! D99   D(41,34,35,36)        -74.395          estimate D2E/DX2                !
 ! D100  D(41,34,35,37)         44.8919         estimate D2E/DX2                !
 ! D101  D(41,34,35,38)        166.7231         estimate D2E/DX2                !
 ! D102  D(42,34,35,36)        169.9106         estimate D2E/DX2                !
 ! D103  D(42,34,35,37)        -70.8025         estimate D2E/DX2                !
 ! D104  D(42,34,35,38)         51.0287         estimate D2E/DX2                !
 ! D105  D(34,35,36,31)        172.7169         estimate D2E/DX2                !
 ! D106  D(34,35,36,39)        -63.0192         estimate D2E/DX2                !
 ! D107  D(34,35,36,40)         54.083          estimate D2E/DX2                !
 ! D108  D(37,35,36,31)         50.0761         estimate D2E/DX2                !
 ! D109  D(37,35,36,39)        174.34           estimate D2E/DX2                !
 ! D110  D(37,35,36,40)        -68.5579         estimate D2E/DX2                !
 ! D111  D(38,35,36,31)        -67.6256         estimate D2E/DX2                !
 ! D112  D(38,35,36,39)         56.6383         estimate D2E/DX2                !
 ! D113  D(38,35,36,40)        173.7405         estimate D2E/DX2                !
 ! D114  D(34,35,37,32)        141.7128         estimate D2E/DX2                !
 ! D115  D(34,35,37,33)        -39.1962         estimate D2E/DX2                !
 ! D116  D(36,35,37,32)        -98.5923         estimate D2E/DX2                !
 ! D117  D(36,35,37,33)         80.4987         estimate D2E/DX2                !
 ! D118  D(38,35,37,32)         19.1539         estimate D2E/DX2                !
 ! D119  D(38,35,37,33)       -161.7551         estimate D2E/DX2                !
 --------------------------------------------------------------------------------
 Trust Radius=3.00D-01 FncErr=1.00D-07 GrdErr=1.00D-06 EigMax=2.50D+02 EigMin=1.00D-04
 Number of steps in this run=    255 maximum allowed number of steps=    264.
 GradGradGradGradGradGradGradGradGradGradGradGradGradGradGradGradGradGrad

                          Input orientation:                          
 ---------------------------------------------------------------------
 Center     Atomic      Atomic             Coordinates (Angstroms)
 Number     Number       Type             X           Y           Z
 ---------------------------------------------------------------------
      1          8           0        5.238199    0.087753   -0.480578
      2          1           0        5.688838    0.834884   -0.075631
      3          6           0        1.674169    1.236339    0.168301
      4          7           0        1.071692   -0.093114   -0.150020
      5          8           0       -0.192047   -0.184388   -0.032833
      6          6           0        3.126908    1.270644   -0.316503
      7          6           0        3.922095    0.026285    0.050117
      8          6           0        3.256042   -1.180792   -0.580634
      9          6           0        1.811491   -1.391492   -0.120753
     10          6           0        1.105639   -2.344657   -1.085795
     11          6           0        0.866945    2.301687   -0.576357
     12          6           0        1.741828   -1.964199    1.302345
     13          6           0        1.573242    1.483538    1.680444
     14          1           0        3.599906    2.164805    0.101145
     15          1           0        3.147601    1.365589   -1.407381
     16          1           0        3.824950   -2.085440   -0.351853
     17          1           0        3.279391   -1.040770   -1.666677
     18          1           0        1.687003   -3.265998   -1.157783
     19          1           0        1.033533   -1.897302   -2.079070
     20          1           0        0.104356   -2.585408   -0.731299
     21          1           0        0.797579    2.054845   -1.637577
     22          1           0        1.375166    3.262442   -0.472787
     23          1           0       -0.137264    2.396287   -0.164188
     24          1           0        3.970897   -0.090527    1.139476
     25          1           0        0.702631   -1.984941    1.635100
     26          1           0        2.128237   -2.985458    1.295981
     27          1           0        2.328593   -1.384678    2.015359
     28          1           0        1.879430    2.509613    1.894365
     29          1           0        0.540361    1.357140    2.011077
     30          1           0        2.209276    0.811953    2.257212
     31          8           0       -3.708743    1.180494    2.126590
     32          8           0       -2.849377   -1.771359    2.122011
     33          8           0       -4.955413   -2.024508    1.417936
     34          7           0       -4.163395   -0.695117   -1.017572
     35          6           0       -3.560114   -0.427648    0.279489
     36          6           0       -4.107009    0.909171    0.801396
     37          6           0       -3.879035   -1.492982    1.316311
     38          1           0       -2.476322   -0.349371    0.178989
     39          1           0       -3.789561    1.694127    0.105726
     40          1           0       -5.199573    0.863298    0.793754
     41          1           0       -5.128435   -0.980763   -0.870670
     42          1           0       -3.700099   -1.482041   -1.460130
     43          1           0       -4.478779    1.158005    2.718922
     44          1           0       -3.146323   -2.420640    2.776988
 ---------------------------------------------------------------------
                    Distance matrix (angstroms):
                    1          2          3          4          5
     1  O    0.000000
     2  H    0.961906   0.000000
     3  C    3.800343   4.042058   0.000000
     4  N    4.183511   4.710069   1.493905   0.000000
     5  O    5.455466   5.968715   2.354078   1.272439   0.000000
     6  C    2.425634   2.609864   1.531882   2.472138   3.634976
     7  C    1.420403   1.947056   2.555654   2.859914   4.120367
     8  C    2.355454   3.199449   2.984250   2.477873   3.630733
     9  C    3.749662   4.471309   2.647245   1.494639   2.340725
    10  C    4.833318   5.668829   3.836602   2.438498   2.731205
    11  C    4.900871   5.064868   1.530063   2.441056   2.756347
    12  C    4.428762   5.031160   3.396186   2.461586   2.947931
    13  C    4.477738   4.521358   1.535536   2.467384   2.972127
    14  H    2.708607   2.482655   2.138930   3.398992   4.462686
    15  H    2.619624   2.917720   2.161130   2.831637   3.930020
    16  H    2.595498   3.475438   3.991320   3.404487   4.455563
    17  H    2.552905   3.443100   3.336032   2.841168   3.931122
    18  H    4.931252   5.831207   4.693581   3.385467   3.780564
    19  H    4.916791   5.757645   3.909066   2.641550   2.936530
    20  H    5.793530   6.581393   4.228397   2.735901   2.518056
    21  H    4.992715   5.277537   2.167846   2.627107   2.927239
    22  H    5.000173   4.965736   2.146041   3.384676   3.811870
    23  H    5.858757   6.032353   2.176538   2.767470   2.584596
    24  H    2.064561   2.298737   2.824662   3.173042   4.325878
    25  H    5.416967   5.978317   3.670426   2.627141   2.612363
    26  H    4.719391   5.399464   4.393337   3.401891   3.872397
    27  H    4.106527   4.537614   3.272556   2.817233   3.462573
    28  H    4.773582   4.604041   2.154682   3.406778   3.906757
    29  H    5.467117   5.579778   2.167011   2.656292   2.662761
    30  H    4.146605   4.189276   2.197724   2.812118   3.464586
    31  O    9.382919   9.658351   5.728329   5.445878   4.346626
    32  O    8.697049   9.193653   5.772842   4.832537   3.771371
    33  O   10.581859  11.122363   7.493068   6.520335   5.308524
    34  N    9.449403  10.014722   6.262106   5.340524   4.123368
    35  C    8.846109   9.341477   5.493535   4.663691   3.391252
    36  C    9.468426   9.835309   5.824935   5.359917   4.149546
    37  C    9.426107   9.944881   6.293266   5.349716   4.138416
    38  H    7.754994   8.254522   4.443103   3.572439   2.300000
    39  H    9.188288   9.518994   5.483232   5.185694   4.060804
    40  H   10.543836  10.923101   6.912212   6.413595   5.182297
    41  H   10.428854  10.997366   7.229828   6.304667   5.069922
    42  H    9.127812   9.769192   6.238921   5.139601   4.003437
    43  H   10.286005  10.549615   6.661124   6.372116   5.267850
    44  H    9.338307   9.838493   6.589074   5.637056   4.650125
                    6          7          8          9         10
     6  C    0.000000
     7  C    1.521566   0.000000
     8  C    2.469004   1.516083   0.000000
     9  C    2.975837   2.548321   1.530560   0.000000
    10  C    4.212807   3.852802   2.496798   1.529071   0.000000
    11  C    2.497600   3.860552   4.223205   3.839181   4.680279
    12  C    3.873413   3.206816   2.540114   1.535596   2.500539
    13  C    2.539094   3.209153   3.878523   3.401010   4.746136
    14  H    1.094386   2.163256   3.431630   3.986843   5.288236
    15  H    1.095198   2.125530   2.679426   3.322965   4.247229
    16  H    3.428092   2.151836   1.092879   2.142192   2.828518
    17  H    2.681204   2.121098   1.095281   2.160467   2.600527
    18  H    4.833446   4.158580   2.672652   2.145857   1.091804
    19  H    4.186256   4.071537   2.774571   2.167041   1.091751
    20  H    4.917013   4.691128   3.453805   2.170832   1.089126
    21  H    2.790337   4.089739   4.198871   3.899489   4.444658
    22  H    2.657119   4.151263   4.826143   4.687580   5.646945
    23  H    3.456167   4.705447   4.948075   4.259906   4.987055
    24  H    2.164481   1.096690   2.158350   2.818461   4.271140
    25  H    4.503855   4.113654   3.475060   2.159808   2.774001
    26  H    4.659598   3.720309   2.837331   2.155966   2.670054
    27  H    3.622930   2.896937   2.764220   2.197821   3.469054
    28  H    2.824745   3.706838   4.651857   4.391348   5.748395
    29  H    3.480709   4.129487   4.531334   3.703437   4.859368
    30  H    2.770642   2.902118   3.622171   3.266209   4.728414
    31  O    7.259680   7.992097   7.836642   6.491428   6.776752
    32  O    7.135553   7.305964   6.702925   5.186327   5.124534
    33  O    8.898889   9.213405   8.493182   6.968448   6.565632
    34  N    7.583155   8.187523   7.448144   6.081816   5.521626
    35  C    6.925002   7.499474   6.911368   5.472049   5.225722
    36  C    7.328705   8.112362   7.777690   6.416545   6.428109
    37  C    7.706293   8.047922   7.389532   5.870055   5.598432
    38  H    5.853729   6.410730   5.841942   4.422805   4.290838
    39  H    6.942273   7.890148   7.640470   6.398760   6.457127
    40  H    8.410047   9.190126   8.807081   7.421281   7.319793
    41  H    8.574766   9.152818   8.391876   6.992399   6.385152
    42  H    7.449374   7.915411   7.017988   5.672720   4.896872
    43  H    8.189809   8.886957   8.728373   7.357390   7.611192
    44  H    7.908773   7.961520   7.334925   5.834035   5.745089
                   11         12         13         14         15
    11  C    0.000000
    12  C    4.742650   0.000000
    13  C    2.502274   3.472502   0.000000
    14  H    2.819011   4.684443   2.658134   0.000000
    15  H    2.601590   4.517333   3.468023   1.766062   0.000000
    16  H    5.295949   2.662793   4.683804   4.280238   3.671858
    17  H    4.263885   3.468705   4.526179   3.674729   2.423874
    18  H    5.657709   2.783867   5.534127   5.893871   4.862843
    19  H    4.462892   3.455449   5.084812   5.276393   3.945492
    20  H    4.948661   2.683826   4.952823   5.956203   5.032773
    21  H    1.091756   5.068280   3.455041   3.299740   2.459810
    22  H    1.091818   5.532026   2.800025   2.546306   2.759174
    23  H    1.089618   4.969461   2.676118   3.753722   3.660356
    24  H    4.278001   2.916491   2.918746   2.510436   3.047059
    25  H    4.826253   1.091369   3.576362   5.288441   5.143989
    26  H    5.748949   1.091935   4.519708   5.488046   5.222919
    27  H    4.737372   1.090196   2.984859   4.228390   4.466530
    28  H    2.678213   4.514910   1.091945   2.508898   3.717334
    29  H    2.773741   3.602377   1.091851   3.696076   4.299259
    30  H    3.471350   2.972759   1.090058   2.900463   3.823115
    31  O    5.431382   6.346431   5.309448   7.647721   7.715741
    32  O    6.138562   4.667784   5.508983   7.821160   7.632876
    33  O    7.522833   6.698510   7.416106   9.616536   9.226809
    34  N    5.871953   6.470258   6.703345   8.348624   7.605861
    35  C    5.270729   5.614072   5.653905   7.616987   7.145255
    36  C    5.345795   6.535755   5.776493   7.839866   7.597129
    37  C    6.364435   5.640598   6.222507   8.413715   8.059996
    38  H    4.333138   4.654287   4.691790   6.576297   6.089841
    39  H    4.745252   6.738807   5.593187   7.404443   7.107858
    40  H    6.383479   7.512420   6.858713   8.922133   8.647115
    41  H    6.841467   7.272527   7.582442   9.328609   8.618944
    42  H    5.996294   6.121953   6.816596   8.308257   7.416385
    43  H    6.383074   7.102873   6.149095   8.551699   8.673589
    44  H    7.046390   5.126103   6.222484   8.584757   8.453281
                   16         17         18         19         20
    16  H    0.000000
    17  H    1.765710   0.000000
    18  H    2.571781   2.783220   0.000000
    19  H    3.287960   2.438769   1.774576   0.000000
    20  H    3.773164   3.652627   1.774785   1.775766   0.000000
    21  H    5.287724   3.967754   5.415962   3.983724   4.778477
    22  H    5.883529   4.854800   6.571681   5.414778   5.989920
    23  H    5.985001   5.073891   6.031306   4.844837   5.019689
    24  H    2.495003   3.042308   4.536208   4.717158   4.967330
    25  H    3.702291   4.293353   3.226498   3.729911   2.513630
    26  H    2.530657   3.726166   2.508854   3.711257   2.892404
    27  H    2.886840   3.818335   3.744307   4.324848   3.732709
    28  H    5.472208   5.219783   6.535313   5.993716   6.000353
    29  H    5.312562   5.174759   5.721002   5.250135   4.822283
    30  H    4.220487   4.469299   5.344590   5.246501   4.990386
    31  O    8.577035   8.255719   7.724795   7.046246   6.073653
    32  O    7.124977   7.242218   5.793940   5.722057   4.186717
    33  O    8.957156   8.848422   7.231689   6.936333   5.525856
    34  N    8.135714   7.479029   6.391889   5.438758   4.676415
    35  C    7.595132   7.137388   6.136303   5.368824   4.371036
    36  C    8.556497   8.028235   7.405470   6.526756   5.683030
    37  C    7.904756   7.768255   6.343935   5.985434   4.610153
    38  H    6.557573   6.083810   5.256134   4.451292   3.533891
    39  H    8.513242   7.784032   7.496136   6.397963   5.846163
    40  H    9.562922   9.031723   8.263444   7.397678   6.507766
    41  H    9.036182   8.445636   7.194090   6.345874   5.475072
    42  H    7.630120   6.996475   5.682850   4.791952   4.027715
    43  H    9.428760   9.179177   8.521591   7.920935   6.849985
    44  H    7.648572   7.933473   6.289522   6.428559   4.785618
                   21         22         23         24         25
    21  H    0.000000
    22  H    1.774439   0.000000
    23  H    1.778030   1.770001   0.000000
    24  H    4.731236   4.536476   4.976020   0.000000
    25  H    5.199933   5.694780   4.810200   3.809988   0.000000
    26  H    5.981728   6.536965   6.018951   3.435188   1.774370
    27  H    5.245785   5.356829   5.012641   2.266972   1.774448
    28  H    3.721805   2.534648   2.884014   3.421231   4.653288
    29  H    3.723658   3.239854   2.504153   3.824135   3.367075
    30  H    4.325165   3.762118   3.725526   2.273128   3.237224
    31  O    5.936361   6.077614   4.413760   7.846448   5.451766
    32  O    6.486496   7.065331   5.472800   7.092723   3.591582
    33  O    7.685974   8.461850   6.727637   9.137660   5.662349
    34  N    5.705959   6.828962   5.147308   8.437126   5.690213
    35  C    5.369115   6.208032   4.459524   7.587447   4.736437
    36  C    5.596082   6.100464   4.347728   8.146549   5.674820
    37  C    6.571396   7.309005   5.596351   7.976189   4.619017
    38  H    4.449561   5.320147   3.623203   6.523509   3.860193
    39  H    4.920475   5.428508   3.728962   8.029841   6.004525
    40  H    6.580044   7.112469   5.375377   9.226420   6.607294
    41  H    6.702291   7.775598   6.067567   9.361146   6.425620
    42  H    5.724522   7.017355   5.423531   8.218177   5.405311
    43  H    6.900968   6.991733   5.356717   8.686225   6.156281
    44  H    7.421099   7.956276   6.395916   7.665879   4.038340
                   26         27         28         29         30
    26  H    0.000000
    27  H    1.766393   0.000000
    28  H    5.533152   3.921975   0.000000
    29  H    4.678768   3.273432   1.770571   0.000000
    30  H    3.918018   2.213124   1.767061   1.772876   0.000000
    31  O    7.219099   6.560632   5.748753   4.254342   5.930921
    32  O    5.189702   5.193484   6.382802   4.614124   5.681703
    33  O    7.149574   7.336419   8.215858   6.480038   7.751301
    34  N    7.083984   7.198616   7.434071   5.959010   7.321640
    35  C    6.319255   6.213374   6.389363   4.795598   6.223653
    36  C    7.368245   6.939194   6.292332   4.823075   6.482616
    37  C    6.189929   6.247803   7.036678   5.304428   6.577655
    38  H    5.422047   5.247030   5.485333   3.920345   5.255712
    39  H    7.637772   7.110383   6.000142   4.742589   6.433753
    40  H    8.292283   7.951037   7.350781   5.888344   7.552178
    41  H    7.834058   8.006221   8.302910   6.775360   8.175541
    42  H    6.620114   6.959427   7.636562   6.171849   7.348588
    43  H    7.927529   7.300723   6.552371   5.072718   6.712899
    44  H    5.507575   5.623878   7.095394   5.333843   6.277123
                   31         32         33         34         35
    31  O    0.000000
    32  O    3.074404   0.000000
    33  O    3.511184   2.234993   0.000000
    34  N    3.689224   3.569583   2.885528   0.000000
    35  C    2.453567   2.388638   2.406841   1.455285   0.000000
    36  C    1.410096   3.242052   3.115507   2.426018   1.535762
    37  C    2.798753   1.336728   1.204756   2.482833   1.520410
    38  H    2.766314   2.436505   3.238359   2.097025   1.091252
    39  H    2.086682   4.118124   4.112098   2.666465   2.141207
    40  H    2.024757   3.772148   2.964563   2.604462   2.149148
    41  H    3.958551   3.843864   2.521321   1.017091   2.021988
    42  H    4.466959   3.693124   3.186432   1.014766   2.039023
    43  H    0.971761   3.404765   3.471042   4.182692   3.051077
    44  H    3.702364   0.968885   2.297118   4.290751   3.221916
                   36         37         38         39         40
    36  C    0.000000
    37  C    2.467275   0.000000
    38  H    2.151850   2.137511   0.000000
    39  H    1.095850   3.410452   2.430195   0.000000
    40  H    1.093553   2.751170   3.043780   1.775329   0.000000
    41  H    2.722309   2.570264   2.921325   3.146580   2.485141
    42  H    3.316318   2.782222   2.338222   3.542309   3.581763
    43  H    1.969019   3.058552   3.568372   2.755221   2.076696
    44  H    3.989176   1.879094   3.389492   4.947798   4.351241
                   41         42         43         44
    41  H    0.000000
    42  H    1.624464   0.000000
    43  H    4.228658   5.004064   0.000000
    44  H    4.394021   4.375020   3.819099   0.000000
 Stoichiometry    C12H25N2O5(2)
 Framework group  C1[X(C12H25N2O5)]
 Deg. of freedom   126
 Full point group                 C1      NOp   1
 Largest Abelian subgroup         C1      NOp   1
 Largest concise Abelian subgroup C1      NOp   1
                         Standard orientation:                         
 ---------------------------------------------------------------------
 Center     Atomic      Atomic             Coordinates (Angstroms)
 Number     Number       Type             X           Y           Z
 ---------------------------------------------------------------------
      1          8           0       -5.434294   -0.160762    0.008611
      2          1           0       -5.884359    0.582389   -0.404220
      3          6           0       -1.934697    1.320690    0.035454
      4          7           0       -1.267995    0.019456    0.342129
      5          8           0        0.001662    0.039523    0.423794
      6          6           0       -3.441657    1.195405    0.280477
      7          6           0       -4.052153   -0.069033   -0.305743
      8          6           0       -3.382397   -1.272428    0.328113
      9          6           0       -1.870998   -1.325173    0.092518
     10          6           0       -1.237126   -2.304046    1.081492
     11          6           0       -1.354049    2.373705    0.981552
     12          6           0       -1.530103   -1.757600   -1.340957
     13          6           0       -1.625245    1.712775   -1.416572
     14          1           0       -3.925374    2.083901   -0.136983
     15          1           0       -3.638937    1.187937    1.357734
     16          1           0       -3.823003   -2.194410   -0.059445
     17          1           0       -3.585718   -1.234917    1.403703
     18          1           0       -1.734795   -3.271176    0.986511
     19          1           0       -1.360708   -1.945407    2.105223
     20          1           0       -0.175231   -2.431336    0.875645
     21          1           0       -1.426517    2.036807    2.017496
     22          1           0       -1.926989    3.296706    0.872587
     23          1           0       -0.311440    2.584820    0.745618
     24          1           0       -3.921445   -0.088905   -1.394435
     25          1           0       -0.454635   -1.665497   -1.502119
     26          1           0       -1.816628   -2.802477   -1.476815
     27          1           0       -2.051074   -1.163326   -2.091925
     28          1           0       -1.988485    2.726713   -1.596374
     29          1           0       -0.546534    1.699305   -1.584913
     30          1           0       -2.099830    1.048758   -2.139120
     31          8           0        3.667481    1.870515   -1.026170
     32          8           0        3.094753   -1.127975   -1.390862
     33          8           0        5.081391   -1.277337   -0.377869
     34          7           0        3.803807   -0.243789    1.994013
     35          6           0        3.385500    0.093006    0.641444
     36          6           0        3.880134    1.511105    0.320668
     37          6           0        3.957674   -0.844152   -0.410222
     38          1           0        2.296634    0.075796    0.571407
     39          1           0        3.387954    2.201363    1.015066
     40          1           0        4.957963    1.551253    0.501040
     41          1           0        4.802210   -0.437554    1.983038
     42          1           0        3.352720   -1.102152    2.293152
     43          1           0        4.518344    1.963417   -1.486301
     44          1           0        3.547930   -1.688911   -2.037946
 ---------------------------------------------------------------------
 Rotational constants (GHZ):           0.6627296           0.1610336           0.1483054
 Standard basis: 6-311G(d,p) (5D, 7F)
 There are   511 symmetry adapted cartesian basis functions of A   symmetry.
 There are   492 symmetry adapted basis functions of A   symmetry.
   492 basis functions,   808 primitive gaussians,   511 cartesian basis functions
    76 alpha electrons       75 beta electrons
       nuclear repulsion energy      1603.5333848060 Hartrees.
 NAtoms=   44 NActive=   44 NUniq=   44 SFac= 1.00D+00 NAtFMM=   60 NAOKFM=F Big=F
 Integral buffers will be    131072 words long.
 Raffenetti 2 integral format.
 Two-electron integral symmetry is turned on.
 ------------------------------------------------------------------------------
 Polarizable Continuum Model (PCM)
 =================================
 Model                : PCM.
 Atomic radii         : UFF (Universal Force Field).
 Polarization charges : Total charges.
 Charge compensation  : None.
 Solution method      : On-the-fly selection.
 Cavity type          : Scaled VdW (van der Waals Surface) (Alpha=1.100).
 Cavity algorithm     : GePol (No added spheres)
                        Default sphere list used, NSphG=   44.
                        Lebedev-Laikov grids with approx.  5.0 points / Ang**2.
                        Smoothing algorithm: York/Karplus (Gamma=1.0000).
                        Polarization charges: spherical gaussians, with
                                              point-specific exponents (IZeta= 3).
                        Self-potential: point-specific (ISelfS= 7).
                        Self-field    : sphere-specific E.n sum rule (ISelfD= 2).
 1st derivatives      : Analytical E(r).r(x)/FMM algorithm (CHGder, D1EAlg=3).
                        Cavity 1st derivative terms included.
 Solvent              : Water, Eps=  78.355300 Eps(inf)=   1.777849
 ------------------------------------------------------------------------------
 One-electron integrals computed using PRISM.
 NBasis=   492 RedAO= T EigKep=  9.25D-04  NBF=   492
 NBsUse=   492 1.00D-06 EigRej= -1.00D+00 NBFU=   492
 ExpMin= 1.03D-01 ExpMax= 8.59D+03 ExpMxC= 1.30D+03 IAcc=3 IRadAn=         5 AccDes= 0.00D+00
 Harris functional with IExCor= 1009 and IRadAn=       5 diagonalized for initial guess.
 HarFok:  IExCor= 1009 AccDes= 0.00D+00 IRadAn=         5 IDoV= 1 UseB2=F ITyADJ=14
 ICtDFT=  3500011 ScaDFX=  1.000000  1.000000  1.000000  1.000000
 FoFCou: FMM=F IPFlag=           0 FMFlag=      100000 FMFlg1=           0
         NFxFlg=           0 DoJE=T BraDBF=F KetDBF=T FulRan=T
         wScrn=  0.000000 ICntrl=       500 IOpCl=  0 I1Cent=   200000004 NGrid=           0
         NMat0=    1 NMatS0=      1 NMatT0=    0 NMatD0=    1 NMtDS0=    0 NMtDT0=    0
 Petite list used in FoFCou.
 Initial guess <Sx>= 0.0000 <Sy>= 0.0000 <Sz>= 0.5000 <S**2>= 0.7500 S= 0.5000
 Requested convergence on RMS density matrix=1.00D-08 within 128 cycles.
 Requested convergence on MAX density matrix=1.00D-06.
 Requested convergence on             energy=1.00D-06.
 No special actions if energy rises.
 Inv3:  Mode=1 IEnd=    26107500.
 Iteration    1 A*A^-1 deviation from unit magnitude is 8.99D-15 for    159.
 Iteration    1 A*A^-1 deviation from orthogonality  is 4.57D-15 for   2214    733.
 Iteration    1 A^-1*A deviation from unit magnitude is 8.88D-15 for    159.
 Iteration    1 A^-1*A deviation from orthogonality  is 3.87D-15 for   2433   1455.
 Error on total polarization charges =  0.01152
 SCF Done:  E(UM062X) =  -957.781339430     A.U. after   15 cycles
            NFock= 15  Conv=0.33D-08     -V/T= 2.0035
 <Sx>= 0.0000 <Sy>= 0.0000 <Sz>= 0.5000 <S**2>= 0.7547 S= 0.5024
 <L.S>= 0.000000000000E+00
 Annihilation of the first spin contaminant:
 S**2 before annihilation     0.7547,   after     0.7500

 **********************************************************************

            Population analysis using the SCF density.

 **********************************************************************

 Orbital symmetries:
 Alpha Orbitals:
       Occupied  (A) (A) (A) (A) (A) (A) (A) (A) (A) (A) (A) (A)
                 (A) (A) (A) (A) (A) (A) (A) (A) (A) (A) (A) (A)
                 (A) (A) (A) (A) (A) (A) (A) (A) (A) (A) (A) (A)
                 (A) (A) (A) (A) (A) (A) (A) (A) (A) (A) (A) (A)
                 (A) (A) (A) (A) (A) (A) (A) (A) (A) (A) (A) (A)
                 (A) (A) (A) (A) (A) (A) (A) (A) (A) (A) (A) (A)
                 (A) (A) (A) (A)
       Virtual   (A) (A) (A) (A) (A) (A) (A) (A) (A) (A) (A) (A)
                 (A) (A) (A) (A) (A) (A) (A) (A) (A) (A) (A) (A)
                 (A) (A) (A) (A) (A) (A) (A) (A) (A) (A) (A) (A)
                 (A) (A) (A) (A) (A) (A) (A) (A) (A) (A) (A) (A)
                 (A) (A) (A) (A) (A) (A) (A) (A) (A) (A) (A) (A)
                 (A) (A) (A) (A) (A) (A) (A) (A) (A) (A) (A) (A)
                 (A) (A) (A) (A) (A) (A) (A) (A) (A) (A) (A) (A)
                 (A) (A) (A) (A) (A) (A) (A) (A) (A) (A) (A) (A)
                 (A) (A) (A) (A) (A) (A) (A) (A) (A) (A) (A) (A)
                 (A) (A) (A) (A) (A) (A) (A) (A) (A) (A) (A) (A)
                 (A) (A) (A) (A) (A) (A) (A) (A) (A) (A) (A) (A)
                 (A) (A) (A) (A) (A) (A) (A) (A) (A) (A) (A) (A)
                 (A) (A) (A) (A) (A) (A) (A) (A) (A) (A) (A) (A)
                 (A) (A) (A) (A) (A) (A) (A) (A) (A) (A) (A) (A)
                 (A) (A) (A) (A) (A) (A) (A) (A) (A) (A) (A) (A)
                 (A) (A) (A) (A) (A) (A) (A) (A) (A) (A) (A) (A)
                 (A) (A) (A) (A) (A) (A) (A) (A) (A) (A) (A) (A)
                 (A) (A) (A) (A) (A) (A) (A) (A) (A) (A) (A) (A)
                 (A) (A) (A) (A) (A) (A) (A) (A) (A) (A) (A) (A)
                 (A) (A) (A) (A) (A) (A) (A) (A) (A) (A) (A) (A)
                 (A) (A) (A) (A) (A) (A) (A) (A) (A) (A) (A) (A)
                 (A) (A) (A) (A) (A) (A) (A) (A) (A) (A) (A) (A)
                 (A) (A) (A) (A) (A) (A) (A) (A) (A) (A) (A) (A)
                 (A) (A) (A) (A) (A) (A) (A) (A) (A) (A) (A) (A)
                 (A) (A) (A) (A) (A) (A) (A) (A) (A) (A) (A) (A)
                 (A) (A) (A) (A) (A) (A) (A) (A) (A) (A) (A) (A)
                 (A) (A) (A) (A) (A) (A) (A) (A) (A) (A) (A) (A)
                 (A) (A) (A) (A) (A) (A) (A) (A) (A) (A) (A) (A)
                 (A) (A) (A) (A) (A) (A) (A) (A) (A) (A) (A) (A)
                 (A) (A) (A) (A) (A) (A) (A) (A) (A) (A) (A) (A)
                 (A) (A) (A) (A) (A) (A) (A) (A) (A) (A) (A) (A)
                 (A) (A) (A) (A) (A) (A) (A) (A) (A) (A) (A) (A)
                 (A) (A) (A) (A) (A) (A) (A) (A) (A) (A) (A) (A)
                 (A) (A) (A) (A) (A) (A) (A) (A) (A) (A) (A) (A)
                 (A) (A) (A) (A) (A) (A) (A) (A)
 Beta  Orbitals:
       Occupied  (A) (A) (A) (A) (A) (A) (A) (A) (A) (A) (A) (A)
                 (A) (A) (A) (A) (A) (A) (A) (A) (A) (A) (A) (A)
                 (A) (A) (A) (A) (A) (A) (A) (A) (A) (A) (A) (A)
                 (A) (A) (A) (A) (A) (A) (A) (A) (A) (A) (A) (A)
                 (A) (A) (A) (A) (A) (A) (A) (A) (A) (A) (A) (A)
                 (A) (A) (A) (A) (A) (A) (A) (A) (A) (A) (A) (A)
                 (A) (A) (A)
       Virtual   (A) (A) (A) (A) (A) (A) (A) (A) (A) (A) (A) (A)
                 (A) (A) (A) (A) (A) (A) (A) (A) (A) (A) (A) (A)
                 (A) (A) (A) (A) (A) (A) (A) (A) (A) (A) (A) (A)
                 (A) (A) (A) (A) (A) (A) (A) (A) (A) (A) (A) (A)
                 (A) (A) (A) (A) (A) (A) (A) (A) (A) (A) (A) (A)
                 (A) (A) (A) (A) (A) (A) (A) (A) (A) (A) (A) (A)
                 (A) (A) (A) (A) (A) (A) (A) (A) (A) (A) (A) (A)
                 (A) (A) (A) (A) (A) (A) (A) (A) (A) (A) (A) (A)
                 (A) (A) (A) (A) (A) (A) (A) (A) (A) (A) (A) (A)
                 (A) (A) (A) (A) (A) (A) (A) (A) (A) (A) (A) (A)
                 (A) (A) (A) (A) (A) (A) (A) (A) (A) (A) (A) (A)
                 (A) (A) (A) (A) (A) (A) (A) (A) (A) (A) (A) (A)
                 (A) (A) (A) (A) (A) (A) (A) (A) (A) (A) (A) (A)
                 (A) (A) (A) (A) (A) (A) (A) (A) (A) (A) (A) (A)
                 (A) (A) (A) (A) (A) (A) (A) (A) (A) (A) (A) (A)
                 (A) (A) (A) (A) (A) (A) (A) (A) (A) (A) (A) (A)
                 (A) (A) (A) (A) (A) (A) (A) (A) (A) (A) (A) (A)
                 (A) (A) (A) (A) (A) (A) (A) (A) (A) (A) (A) (A)
                 (A) (A) (A) (A) (A) (A) (A) (A) (A) (A) (A) (A)
                 (A) (A) (A) (A) (A) (A) (A) (A) (A) (A) (A) (A)
                 (A) (A) (A) (A) (A) (A) (A) (A) (A) (A) (A) (A)
                 (A) (A) (A) (A) (A) (A) (A) (A) (A) (A) (A) (A)
                 (A) (A) (A) (A) (A) (A) (A) (A) (A) (A) (A) (A)
                 (A) (A) (A) (A) (A) (A) (A) (A) (A) (A) (A) (A)
                 (A) (A) (A) (A) (A) (A) (A) (A) (A) (A) (A) (A)
                 (A) (A) (A) (A) (A) (A) (A) (A) (A) (A) (A) (A)
                 (A) (A) (A) (A) (A) (A) (A) (A) (A) (A) (A) (A)
                 (A) (A) (A) (A) (A) (A) (A) (A) (A) (A) (A) (A)
                 (A) (A) (A) (A) (A) (A) (A) (A) (A) (A) (A) (A)
                 (A) (A) (A) (A) (A) (A) (A) (A) (A) (A) (A) (A)
                 (A) (A) (A) (A) (A) (A) (A) (A) (A) (A) (A) (A)
                 (A) (A) (A) (A) (A) (A) (A) (A) (A) (A) (A) (A)
                 (A) (A) (A) (A) (A) (A) (A) (A) (A) (A) (A) (A)
                 (A) (A) (A) (A) (A) (A) (A) (A) (A) (A) (A) (A)
                 (A) (A) (A) (A) (A) (A) (A) (A) (A)
 The electronic state is 2-A.
 Alpha  occ. eigenvalues --  -19.67005 -19.62329 -19.62066 -19.61815 -19.61748
 Alpha  occ. eigenvalues --  -14.83810 -14.73126 -10.67637 -10.59273 -10.59201
 Alpha  occ. eigenvalues --  -10.59175 -10.58993 -10.57626 -10.53821 -10.53783
 Alpha  occ. eigenvalues --  -10.52974 -10.52909 -10.52691 -10.52615  -1.24384
 Alpha  occ. eigenvalues --   -1.23145  -1.15022  -1.14964  -1.14750  -1.00423
 Alpha  occ. eigenvalues --   -0.98134  -0.92879  -0.86114  -0.83869  -0.82128
 Alpha  occ. eigenvalues --   -0.79262  -0.78300  -0.78137  -0.75836  -0.69174
 Alpha  occ. eigenvalues --   -0.68736  -0.67008  -0.61961  -0.61462  -0.59483
 Alpha  occ. eigenvalues --   -0.59056  -0.58353  -0.57513  -0.56684  -0.55840
 Alpha  occ. eigenvalues --   -0.55802  -0.54482  -0.52801  -0.51414  -0.51214
 Alpha  occ. eigenvalues --   -0.50058  -0.49853  -0.48832  -0.48239  -0.47571
 Alpha  occ. eigenvalues --   -0.47358  -0.46265  -0.45703  -0.45218  -0.44493
 Alpha  occ. eigenvalues --   -0.43976  -0.43532  -0.43126  -0.41539  -0.40760
 Alpha  occ. eigenvalues --   -0.40484  -0.40042  -0.39849  -0.39830  -0.37925
 Alpha  occ. eigenvalues --   -0.36928  -0.35906  -0.34704  -0.33714  -0.32149
 Alpha  occ. eigenvalues --   -0.26608
 Alpha virt. eigenvalues --    0.04466   0.05993   0.07282   0.07800   0.08433
 Alpha virt. eigenvalues --    0.08686   0.09616   0.09719   0.10682   0.11142
 Alpha virt. eigenvalues --    0.11874   0.13157   0.14559   0.14729   0.15034
 Alpha virt. eigenvalues --    0.16088   0.16542   0.16886   0.17147   0.18089
 Alpha virt. eigenvalues --    0.18467   0.18816   0.19567   0.19930   0.20435
 Alpha virt. eigenvalues --    0.20781   0.20947   0.21885   0.23141   0.23962
 Alpha virt. eigenvalues --    0.24233   0.24691   0.25381   0.26180   0.27464
 Alpha virt. eigenvalues --    0.28768   0.28908   0.29279   0.29715   0.30003
 Alpha virt. eigenvalues --    0.31066   0.31974   0.33051   0.33291   0.34311
 Alpha virt. eigenvalues --    0.35969   0.36623   0.37216   0.37802   0.39612
 Alpha virt. eigenvalues --    0.41316   0.42034   0.42138   0.43518   0.44274
 Alpha virt. eigenvalues --    0.44892   0.45418   0.45606   0.45860   0.47511
 Alpha virt. eigenvalues --    0.48738   0.48988   0.49390   0.50856   0.51087
 Alpha virt. eigenvalues --    0.51832   0.52307   0.52957   0.53801   0.54484
 Alpha virt. eigenvalues --    0.54795   0.57219   0.57529   0.59372   0.59936
 Alpha virt. eigenvalues --    0.60183   0.60413   0.60878   0.61107   0.62163
 Alpha virt. eigenvalues --    0.62415   0.62816   0.63893   0.64346   0.64532
 Alpha virt. eigenvalues --    0.64753   0.65015   0.65378   0.65608   0.66060
 Alpha virt. eigenvalues --    0.66533   0.67147   0.67882   0.68245   0.68510
 Alpha virt. eigenvalues --    0.68671   0.68729   0.69833   0.70137   0.70641
 Alpha virt. eigenvalues --    0.71329   0.72193   0.73995   0.74391   0.75114
 Alpha virt. eigenvalues --    0.75280   0.75975   0.79041   0.79498   0.80001
 Alpha virt. eigenvalues --    0.83674   0.84925   0.86144   0.87503   0.88288
 Alpha virt. eigenvalues --    0.88857   0.91070   0.91932   0.94201   0.95396
 Alpha virt. eigenvalues --    0.95884   0.96103   0.96943   0.98496   0.99407
 Alpha virt. eigenvalues --    1.00480   1.01269   1.02267   1.03375   1.04634
 Alpha virt. eigenvalues --    1.05248   1.08102   1.09419   1.10392   1.10737
 Alpha virt. eigenvalues --    1.10975   1.12663   1.14976   1.15704   1.16906
 Alpha virt. eigenvalues --    1.20171   1.23746   1.24292   1.25559   1.25742
 Alpha virt. eigenvalues --    1.26170   1.29175   1.31664   1.32628   1.34350
 Alpha virt. eigenvalues --    1.35006   1.36226   1.38094   1.39454   1.40840
 Alpha virt. eigenvalues --    1.41827   1.43630   1.44913   1.45267   1.45758
 Alpha virt. eigenvalues --    1.46582   1.46874   1.47293   1.47982   1.48362
 Alpha virt. eigenvalues --    1.48656   1.49779   1.50190   1.51233   1.51943
 Alpha virt. eigenvalues --    1.52201   1.52619   1.53833   1.54045   1.54798
 Alpha virt. eigenvalues --    1.55258   1.55526   1.56762   1.57201   1.58582
 Alpha virt. eigenvalues --    1.59391   1.59647   1.59864   1.61357   1.61811
 Alpha virt. eigenvalues --    1.62458   1.63977   1.65066   1.65533   1.65906
 Alpha virt. eigenvalues --    1.66547   1.67323   1.68542   1.69447   1.70158
 Alpha virt. eigenvalues --    1.70195   1.70648   1.71798   1.72409   1.73631
 Alpha virt. eigenvalues --    1.74156   1.75038   1.75419   1.75992   1.76525
 Alpha virt. eigenvalues --    1.77442   1.78064   1.78863   1.79310   1.80031
 Alpha virt. eigenvalues --    1.81174   1.82113   1.84374   1.84889   1.85150
 Alpha virt. eigenvalues --    1.85824   1.86922   1.87234   1.89120   1.89418
 Alpha virt. eigenvalues --    1.90831   1.92213   1.92981   1.93268   1.95184
 Alpha virt. eigenvalues --    1.96032   1.96954   1.98029   1.99783   2.00748
 Alpha virt. eigenvalues --    2.01976   2.03289   2.04039   2.06024   2.06810
 Alpha virt. eigenvalues --    2.07509   2.08617   2.09424   2.10310   2.11305
 Alpha virt. eigenvalues --    2.13606   2.15306   2.16827   2.18634   2.19357
 Alpha virt. eigenvalues --    2.21276   2.21853   2.22455   2.23736   2.24459
 Alpha virt. eigenvalues --    2.25357   2.26197   2.27231   2.28793   2.31079
 Alpha virt. eigenvalues --    2.33014   2.37138   2.37745   2.41110   2.41319
 Alpha virt. eigenvalues --    2.42334   2.43925   2.46428   2.46675   2.47359
 Alpha virt. eigenvalues --    2.48571   2.48937   2.49246   2.49587   2.50767
 Alpha virt. eigenvalues --    2.52667   2.53272   2.53437   2.54093   2.54694
 Alpha virt. eigenvalues --    2.56123   2.56313   2.56776   2.57352   2.57672
 Alpha virt. eigenvalues --    2.58289   2.58841   2.59517   2.59788   2.60208
 Alpha virt. eigenvalues --    2.61145   2.62088   2.62298   2.65935   2.65996
 Alpha virt. eigenvalues --    2.68012   2.68391   2.69275   2.70039   2.70313
 Alpha virt. eigenvalues --    2.70704   2.73319   2.75331   2.77504   2.78995
 Alpha virt. eigenvalues --    2.79288   2.79998   2.82283   2.84696   2.86353
 Alpha virt. eigenvalues --    2.87056   2.87578   2.89780   2.90099   2.91145
 Alpha virt. eigenvalues --    2.91330   2.94173   2.94306   2.94592   2.95660
 Alpha virt. eigenvalues --    2.96233   2.97926   2.98339   3.02112   3.05692
 Alpha virt. eigenvalues --    3.06234   3.07097   3.11036   3.11279   3.11969
 Alpha virt. eigenvalues --    3.15542   3.16799   3.18828   3.20835   3.22572
 Alpha virt. eigenvalues --    3.23613   3.23980   3.25801   3.26152   3.29489
 Alpha virt. eigenvalues --    3.30569   3.32395   3.33510   3.34048   3.38545
 Alpha virt. eigenvalues --    3.39885   3.41677   3.41769   3.51658   3.55575
 Alpha virt. eigenvalues --    3.58328   3.61991   3.66375   3.71393   3.77926
 Alpha virt. eigenvalues --    3.78923   3.80656   3.81595   3.82720   3.82907
 Alpha virt. eigenvalues --    3.83695   3.84798   3.85241   3.86156   3.86418
 Alpha virt. eigenvalues --    3.87193   3.87487   3.89973   3.90599   3.93185
 Alpha virt. eigenvalues --    3.94986   3.96316   3.97280   4.02150   4.07700
 Alpha virt. eigenvalues --    4.15818   4.19408   4.23851   4.28068   4.33501
 Alpha virt. eigenvalues --    4.36808   4.38428   4.39517   4.71856   4.80204
 Alpha virt. eigenvalues --    4.89037   4.92275   4.93719   5.01007   5.02893
 Alpha virt. eigenvalues --    5.03114   5.08429   5.14061   5.17970   5.35259
 Alpha virt. eigenvalues --    5.37211   5.39871   5.66566   5.74174   5.74877
 Alpha virt. eigenvalues --    5.85299   5.91812  23.78114  23.81492  23.87868
 Alpha virt. eigenvalues --   23.88783  23.89475  23.91319  23.94813  23.97572
 Alpha virt. eigenvalues --   24.00963  24.03023  24.03503  24.08155  35.54987
 Alpha virt. eigenvalues --   35.66845  49.96326  50.00028  50.00730  50.04828
 Alpha virt. eigenvalues --   50.12694
  Beta  occ. eigenvalues --  -19.67004 -19.62066 -19.61814 -19.61748 -19.61288
  Beta  occ. eigenvalues --  -14.82987 -14.73126 -10.67637 -10.59304 -10.59206
  Beta  occ. eigenvalues --  -10.59203 -10.58993 -10.57627 -10.53819 -10.53781
  Beta  occ. eigenvalues --  -10.52939 -10.52874 -10.52678 -10.52602  -1.24384
  Beta  occ. eigenvalues --   -1.20184  -1.15022  -1.14960  -1.14749  -1.00423
  Beta  occ. eigenvalues --   -0.96914  -0.92695  -0.85511  -0.83869  -0.80511
  Beta  occ. eigenvalues --   -0.79030  -0.78238  -0.78052  -0.75836  -0.68930
  Beta  occ. eigenvalues --   -0.68195  -0.67006  -0.61794  -0.61205  -0.59471
  Beta  occ. eigenvalues --   -0.58544  -0.58350  -0.56421  -0.56014  -0.55808
  Beta  occ. eigenvalues --   -0.54480  -0.52983  -0.52170  -0.51221  -0.51100
  Beta  occ. eigenvalues --   -0.49973  -0.49619  -0.48791  -0.47566  -0.47261
  Beta  occ. eigenvalues --   -0.46828  -0.46039  -0.45538  -0.45162  -0.43716
  Beta  occ. eigenvalues --   -0.43526  -0.43328  -0.42237  -0.41294  -0.40483
  Beta  occ. eigenvalues --   -0.40243  -0.39837  -0.39665  -0.38091  -0.36982
  Beta  occ. eigenvalues --   -0.36873  -0.35904  -0.34616  -0.32224  -0.32133
  Beta virt. eigenvalues --   -0.01407   0.04477   0.06039   0.07321   0.07836
  Beta virt. eigenvalues --    0.08454   0.08705   0.09617   0.09739   0.10795
  Beta virt. eigenvalues --    0.11175   0.11912   0.13138   0.14580   0.14727
  Beta virt. eigenvalues --    0.15037   0.16130   0.16604   0.16959   0.17282
  Beta virt. eigenvalues --    0.18130   0.18558   0.18868   0.19602   0.20155
  Beta virt. eigenvalues --    0.20609   0.20832   0.21165   0.21892   0.23214
  Beta virt. eigenvalues --    0.24035   0.24745   0.24892   0.25460   0.26302
  Beta virt. eigenvalues --    0.27484   0.28874   0.29012   0.29307   0.29887
  Beta virt. eigenvalues --    0.30238   0.31250   0.32107   0.33092   0.33345
  Beta virt. eigenvalues --    0.34445   0.36233   0.37113   0.37440   0.37886
  Beta virt. eigenvalues --    0.39653   0.41350   0.42116   0.42644   0.43673
  Beta virt. eigenvalues --    0.44419   0.45078   0.45445   0.45631   0.45966
  Beta virt. eigenvalues --    0.47563   0.48878   0.49005   0.49695   0.50908
  Beta virt. eigenvalues --    0.51119   0.51873   0.52382   0.53101   0.53997
  Beta virt. eigenvalues --    0.54492   0.55146   0.57236   0.57784   0.59445
  Beta virt. eigenvalues --    0.59983   0.60253   0.60433   0.60975   0.61228
  Beta virt. eigenvalues --    0.62227   0.62534   0.62841   0.63914   0.64397
  Beta virt. eigenvalues --    0.64580   0.64840   0.65053   0.65384   0.65678
  Beta virt. eigenvalues --    0.66262   0.66575   0.67204   0.67922   0.68290
  Beta virt. eigenvalues --    0.68558   0.68744   0.68805   0.69860   0.70216
  Beta virt. eigenvalues --    0.70724   0.71406   0.72246   0.74110   0.74464
  Beta virt. eigenvalues --    0.75201   0.75480   0.76068   0.79078   0.79548
  Beta virt. eigenvalues --    0.80022   0.83805   0.86059   0.86291   0.87689
  Beta virt. eigenvalues --    0.88530   0.88910   0.91199   0.93210   0.94768
  Beta virt. eigenvalues --    0.95582   0.95974   0.96286   0.97156   0.98540
  Beta virt. eigenvalues --    0.99580   1.00494   1.01477   1.02315   1.03875
  Beta virt. eigenvalues --    1.04666   1.05367   1.08287   1.09616   1.10610
  Beta virt. eigenvalues --    1.11049   1.11676   1.12867   1.15086   1.15833
  Beta virt. eigenvalues --    1.17187   1.20332   1.23908   1.24308   1.25555
  Beta virt. eigenvalues --    1.25790   1.26333   1.29188   1.31783   1.32638
  Beta virt. eigenvalues --    1.34628   1.35365   1.36675   1.38178   1.39462
  Beta virt. eigenvalues --    1.40883   1.42049   1.43638   1.44993   1.45271
  Beta virt. eigenvalues --    1.45888   1.46601   1.46994   1.47361   1.48066
  Beta virt. eigenvalues --    1.48408   1.48659   1.49826   1.50231   1.51261
  Beta virt. eigenvalues --    1.51963   1.52255   1.52661   1.53939   1.54074
  Beta virt. eigenvalues --    1.54810   1.55294   1.55649   1.56811   1.57249
  Beta virt. eigenvalues --    1.58605   1.59450   1.59698   1.59961   1.61424
  Beta virt. eigenvalues --    1.61813   1.62572   1.64063   1.65082   1.65589
  Beta virt. eigenvalues --    1.65956   1.66594   1.67368   1.68691   1.69511
  Beta virt. eigenvalues --    1.70200   1.70271   1.70776   1.71902   1.72476
  Beta virt. eigenvalues --    1.73635   1.74200   1.75123   1.75426   1.76023
  Beta virt. eigenvalues --    1.76563   1.77497   1.78110   1.79065   1.79367
  Beta virt. eigenvalues --    1.80135   1.81406   1.82152   1.84427   1.84929
  Beta virt. eigenvalues --    1.85283   1.85902   1.87007   1.87894   1.89215
  Beta virt. eigenvalues --    1.89626   1.91021   1.92321   1.92991   1.93340
  Beta virt. eigenvalues --    1.95188   1.96058   1.97009   1.98088   1.99812
  Beta virt. eigenvalues --    2.00759   2.02033   2.03400   2.04059   2.06029
  Beta virt. eigenvalues --    2.06861   2.07693   2.09040   2.10135   2.10411
  Beta virt. eigenvalues --    2.11407   2.13661   2.15349   2.16901   2.18693
  Beta virt. eigenvalues --    2.19365   2.21420   2.21951   2.22574   2.23951
  Beta virt. eigenvalues --    2.24670   2.25361   2.26328   2.27346   2.28793
  Beta virt. eigenvalues --    2.31634   2.33179   2.37573   2.37842   2.41202
  Beta virt. eigenvalues --    2.41427   2.42484   2.43979   2.46648   2.46806
  Beta virt. eigenvalues --    2.47360   2.48609   2.49007   2.49306   2.49675
  Beta virt. eigenvalues --    2.50850   2.52730   2.53298   2.53527   2.54128
  Beta virt. eigenvalues --    2.54812   2.56140   2.56377   2.56823   2.57525
  Beta virt. eigenvalues --    2.57734   2.58345   2.58896   2.59602   2.59914
  Beta virt. eigenvalues --    2.60266   2.61268   2.62259   2.62563   2.66019
  Beta virt. eigenvalues --    2.66058   2.68089   2.68511   2.69305   2.70135
  Beta virt. eigenvalues --    2.70342   2.70758   2.73318   2.75548   2.77577
  Beta virt. eigenvalues --    2.79120   2.79385   2.80322   2.82284   2.84900
  Beta virt. eigenvalues --    2.86397   2.87246   2.87785   2.90020   2.90335
  Beta virt. eigenvalues --    2.91194   2.91821   2.94278   2.94589   2.95731
  Beta virt. eigenvalues --    2.96228   2.96455   2.97943   2.98394   3.02978
  Beta virt. eigenvalues --    3.05695   3.07260   3.07553   3.11185   3.11410
  Beta virt. eigenvalues --    3.11974   3.15543   3.16913   3.18828   3.20873
  Beta virt. eigenvalues --    3.22576   3.23977   3.24253   3.25971   3.26235
  Beta virt. eigenvalues --    3.29498   3.30570   3.32464   3.33922   3.35760
  Beta virt. eigenvalues --    3.38631   3.40029   3.41723   3.41784   3.52276
  Beta virt. eigenvalues --    3.55747   3.58330   3.62018   3.66483   3.72034
  Beta virt. eigenvalues --    3.77970   3.78923   3.80845   3.81642   3.82778
  Beta virt. eigenvalues --    3.83132   3.83750   3.84802   3.85285   3.86160
  Beta virt. eigenvalues --    3.86440   3.87285   3.87537   3.90058   3.90640
  Beta virt. eigenvalues --    3.93661   3.95063   3.96559   3.97290   4.04578
  Beta virt. eigenvalues --    4.07705   4.15831   4.19476   4.23856   4.28068
  Beta virt. eigenvalues --    4.33501   4.36942   4.39037   4.39511   4.72840
  Beta virt. eigenvalues --    4.80211   4.89043   4.92687   4.93748   5.01180
  Beta virt. eigenvalues --    5.03018   5.07688   5.08437   5.14067   5.19154
  Beta virt. eigenvalues --    5.35264   5.37216   5.39875   5.66568   5.74174
  Beta virt. eigenvalues --    5.74879   5.85303   5.92049  23.78085  23.81492
  Beta virt. eigenvalues --   23.87830  23.88775  23.89473  23.91319  23.94816
  Beta virt. eigenvalues --   23.97584  24.00973  24.03035  24.03514  24.08159
  Beta virt. eigenvalues --   35.54379  35.66845  49.96325  49.99875  50.00096
  Beta virt. eigenvalues --   50.04796  50.12694
          Condensed to atoms (all electrons):
               1          2          3          4          5          6
     1  O    7.995246   0.320302   0.005853   0.000008   0.000000  -0.049543
     2  H    0.320302   0.435582  -0.000271   0.000022  -0.000001  -0.001686
     3  C    0.005853  -0.000271   5.607762   0.188632  -0.084372   0.177687
     4  N    0.000008   0.000022   0.188632   6.933647   0.162076  -0.037978
     5  O    0.000000  -0.000001  -0.084372   0.162076   8.280293   0.006234
     6  C   -0.049543  -0.001686   0.177687  -0.037978   0.006234   5.359376
     7  C    0.252969  -0.040246  -0.046772  -0.010229   0.000181   0.308895
     8  C   -0.056637   0.010204   0.011566  -0.032167   0.006296  -0.105427
     9  C    0.003755  -0.000736  -0.111315   0.182580  -0.085003   0.018167
    10  C   -0.000101   0.000027   0.008585  -0.071219   0.003902  -0.003198
    11  C   -0.000145  -0.000001   0.317470  -0.072830   0.006722  -0.065080
    12  C   -0.000081   0.000008  -0.003362  -0.076482  -0.006989   0.001775
    13  C   -0.000039   0.000003   0.308383  -0.076621  -0.005495  -0.088704
    14  H   -0.000426   0.004704  -0.029072   0.004994  -0.000138   0.404726
    15  H    0.008128  -0.001106  -0.032914  -0.000944  -0.000286   0.403269
    16  H    0.004448  -0.000235  -0.001388   0.004726  -0.000136   0.011091
    17  H    0.006265  -0.000565   0.002525  -0.000764  -0.000284  -0.011467
    18  H   -0.000018   0.000002  -0.000086   0.006151   0.000501  -0.000049
    19  H   -0.000026   0.000000  -0.000056   0.001216  -0.000399   0.000261
    20  H    0.000004  -0.000001   0.000802  -0.006762   0.011772  -0.000161
    21  H   -0.000027   0.000000  -0.035811   0.000896  -0.000201  -0.007713
    22  H   -0.000022   0.000002  -0.044458   0.006108   0.000472  -0.003863
    23  H    0.000005  -0.000001  -0.033497  -0.005857   0.010294   0.008605
    24  H   -0.030212  -0.005420   0.004034  -0.001282  -0.000063  -0.060069
    25  H    0.000003  -0.000002   0.000362  -0.010547   0.014090  -0.000159
    26  H   -0.000022   0.000002  -0.000255   0.006571  -0.000252  -0.000059
    27  H   -0.000169   0.000024   0.001126  -0.001521  -0.000286  -0.001500
    28  H   -0.000015   0.000005  -0.036131   0.006509  -0.000231  -0.004838
    29  H    0.000005  -0.000001  -0.036677  -0.009473   0.013340   0.009320
    30  H   -0.000158  -0.000021  -0.030132  -0.001833  -0.000356  -0.006910
    31  O    0.000000   0.000000   0.000001  -0.000001  -0.000028   0.000000
    32  O    0.000000   0.000000   0.000000  -0.000007  -0.000094   0.000000
    33  O    0.000000   0.000000   0.000000   0.000000   0.000000   0.000000
    34  N    0.000000   0.000000   0.000000  -0.000001  -0.000037   0.000000
    35  C    0.000000   0.000000  -0.000055   0.000522  -0.006636   0.000000
    36  C    0.000000   0.000000   0.000002   0.000008  -0.000115   0.000000
    37  C    0.000000   0.000000  -0.000001   0.000003  -0.000115   0.000000
    38  H    0.000000   0.000000   0.000333  -0.003972   0.026333  -0.000004
    39  H    0.000000   0.000000  -0.000012   0.000007   0.000079   0.000000
    40  H    0.000000   0.000000   0.000000   0.000000  -0.000017   0.000000
    41  H    0.000000   0.000000   0.000000   0.000000  -0.000020   0.000000
    42  H    0.000000   0.000000   0.000000   0.000003   0.000144   0.000000
    43  H    0.000000   0.000000   0.000000   0.000000   0.000003   0.000000
    44  H    0.000000   0.000000   0.000000   0.000001  -0.000014   0.000000
               7          8          9         10         11         12
     1  O    0.252969  -0.056637   0.003755  -0.000101  -0.000145  -0.000081
     2  H   -0.040246   0.010204  -0.000736   0.000027  -0.000001   0.000008
     3  C   -0.046772   0.011566  -0.111315   0.008585   0.317470  -0.003362
     4  N   -0.010229  -0.032167   0.182580  -0.071219  -0.072830  -0.076482
     5  O    0.000181   0.006296  -0.085003   0.003902   0.006722  -0.006989
     6  C    0.308895  -0.105427   0.018167  -0.003198  -0.065080   0.001775
     7  C    5.001484   0.290725  -0.045324   0.009082   0.008693  -0.008970
     8  C    0.290725   5.359703   0.185096  -0.069610  -0.003355  -0.085036
     9  C   -0.045324   0.185096   5.599632   0.328615   0.009250   0.304517
    10  C    0.009082  -0.069610   0.328615   5.010501  -0.000139  -0.088267
    11  C    0.008693  -0.003355   0.009250  -0.000139   5.017941  -0.000711
    12  C   -0.008970  -0.085036   0.304517  -0.088267  -0.000711   5.071620
    13  C   -0.008705   0.002410  -0.003617  -0.000693  -0.089013   0.000046
    14  H   -0.033020   0.010045  -0.001098   0.000079  -0.006626   0.000025
    15  H   -0.045933  -0.011402   0.002264  -0.000518  -0.007866   0.000274
    16  H   -0.032224   0.403328  -0.029604  -0.005968   0.000106  -0.004239
    17  H   -0.044424   0.404810  -0.034811  -0.007960  -0.000517   0.008570
    18  H    0.000224  -0.003985  -0.043894   0.409881   0.000018  -0.005143
    19  H   -0.000437  -0.008286  -0.035625   0.402218  -0.000101   0.009239
    20  H   -0.000455   0.009434  -0.035260   0.405943  -0.000041  -0.007675
    21  H   -0.000440   0.000260  -0.000035  -0.000098   0.402245   0.000057
    22  H    0.000260  -0.000029  -0.000082   0.000019   0.410273   0.000016
    23  H   -0.000373  -0.000134   0.000608  -0.000025   0.405005  -0.000009
[...]
 099884,-0.00127244,0.00015758,-0.00295030,-0.00052391,0.01356696,0.004
 51453,-0.01305096,-0.12485531,-0.04818122,0.19074900,-0.00000459,0.000
 00003,-0.00000182,0.00000077,0.00000023,0.00000088,0.00001065,0.000007
 79,0.00002104,-0.00000681,0.00009302,0.00001951,-0.00019120,0.00003547
 ,-0.00001791,-0.00000105,0.00000400,-0.00000823,0.00000155,-0.00000217
 ,0.00000374,-0.00000250,0.00001126,-0.00000412,-0.00001444,-0.00002606
 ,-0.00000335,-0.00000510,-0.00000146,-0.00000286,0.00002131,-0.0000156
 0,-0.00001670,-0.00001066,0.00000047,0.00000438,-0.00001101,0.00000147
 ,0.00000287,-0.00000172,-0.00000147,-0.00000012,0.00000221,0.00000009,
 -0.00000103,-0.00000472,0.,0.00000053,0.00000072,0.00000004,-0.0000001
 6,-0.00000007,0.00000151,0.00000114,0.00000053,-0.00000011,-0.00000081
 ,-0.00000382,0.00000203,0.00000270,-0.00000646,-0.00000049,0.00000085,
 -0.00001503,-0.00000299,0.00000441,0.00000462,0.00003510,0.00001148,-0
 .00000030,0.00000058,-0.00000088,-0.00000851,0.00000392,0.00000293,0.0
 0000228,0.00000217,-0.00000323,0.00000024,-0.00000002,-0.00000077,0.00
 000297,0.00000103,-0.00000236,-0.00000953,-0.00001200,0.00000366,0.000
 00129,0.00000033,-0.00000261,0.00025939,0.00044384,-0.00008600,0.00063
 871,-0.00010693,0.00112559,0.00120914,0.00091392,0.00073455,-0.2540124
 3,-0.09040388,0.15020204,-0.02558140,-0.01098961,0.01359464,0.00093854
 ,-0.00001737,0.00024731,-0.00068467,-0.00163646,0.00050706,-0.00172634
 ,-0.00123650,-0.00422041,-0.00006232,-0.00006913,-0.00023717,0.0002089
 2,-0.00058404,-0.00030618,0.28962608,-0.00002359,-0.00000262,-0.000001
 68,0.00000322,0.00000038,0.00000172,0.00001445,0.00005019,-0.00000527,
 -0.00000313,0.00006544,0.00005033,-0.00029550,0.00002222,-0.00000529,0
 .00000492,0.00000295,-0.00001230,0.00001739,-0.00000304,0.00001072,0.0
 0000107,0.00002179,-0.00000809,0.00000594,-0.00006231,-0.00001796,-0.0
 0000947,0.00000552,-0.00001094,0.00002011,-0.00002911,-0.00003694,-0.0
 0000867,0.00002159,0.00001052,0.00000734,-0.00002098,0.00000082,-0.000
 00727,-0.00000427,-0.00000119,-0.00000148,0.00000119,0.00000268,-0.000
 01107,0.00000080,0.00000080,-0.00000013,-0.00000201,0.00000177,-0.0000
 0187,0.00000683,0.00000396,0.00000057,-0.00000196,0.00000022,0.0000007
 6,-0.00000684,-0.00000224,-0.00000509,0.00000221,0.00000313,-0.0000227
 9,-0.00001055,0.00000488,0.00002181,0.00007440,0.00002521,0.00000113,0
 .00000075,-0.00000093,0.00000888,-0.00000917,0.00000278,-0.00000370,0.
 00000857,-0.00000776,-0.00000038,-0.00000357,-0.00000063,-0.00000793,-
 0.00000920,-0.00000845,0.00000962,0.00001691,0.00001448,-0.00000998,0.
 00000084,-0.00000249,0.00082140,-0.00013963,-0.00028648,-0.00057368,-0
 .00003834,-0.00080867,-0.00125301,0.00044090,-0.00028385,-0.12809041,-
 0.08320436,0.06191683,-0.00704077,-0.00569299,0.01118337,-0.00164760,-
 0.00008491,0.00084541,0.00240049,0.00082208,0.00010279,-0.00184004,-0.
 00034380,-0.00264876,0.00006822,-0.00031675,0.00007359,0.00019981,-0.0
 0011932,-0.00053886,0.10960685,0.07979822,-0.00000837,-0.00000076,0.00
 000013,0.00000094,-0.00000036,0.00000014,0.00001420,0.00002227,0.00001
 383,-0.00001987,0.00007602,0.00003057,-0.00023280,0.00004018,0.0000053
 7,0.00000091,0.00000027,-0.00000945,0.00000700,0.00000021,0.00000423,-
 0.00000288,0.00001317,-0.00000612,-0.00000670,-0.00003215,-0.00001550,
 -0.00000493,0.00000110,-0.00000617,0.00000540,-0.00002031,-0.00002031,
 -0.00001279,0.00000571,0.00000758,-0.00000383,-0.00001024,0.00000100,-
 0.00000389,-0.00000195,-0.00000023,0.00000027,0.00000019,0.00000110,-0
 .00000606,-0.00000061,0.00000106,0.00000007,-0.00000071,0.00000114,-0.
 00000033,0.00000309,0.00000207,-0.00000017,-0.00000116,0.00000083,0.00
 000037,-0.00000319,0.00000087,-0.00000306,0.00000054,0.00000229,-0.000
 01248,-0.00000557,0.00000347,0.00002128,0.00004680,0.00000731,0.000000
 14,0.00000035,-0.00000082,-0.00000331,0.00000176,0.00000206,0.00000118
 ,0.00000392,-0.00000498,-0.00000020,-0.00000058,-0.00000032,0.00000106
 ,-0.00000117,-0.00000531,-0.00000374,0.00000899,0.00001432,-0.00000110
 ,0.00000052,-0.00000195,0.00069935,0.00014379,-0.00027401,0.00037315,-
 0.00005932,0.00015448,0.00067281,0.00003634,0.00008962,0.18466873,0.04
 962874,-0.16843704,-0.02571936,-0.00773390,0.01142672,-0.00099488,-0.0
 0004370,0.00162193,-0.00223398,-0.00120332,0.00112520,-0.00313333,-0.0
 0143550,-0.00214361,0.00019261,0.00010719,-0.00003434,0.00057713,0.000
 21995,-0.00081589,-0.17009831,-0.05133305,0.17018827,0.00000610,0.0000
 0326,0.00000255,-0.00000094,-0.00000056,-0.00000132,0.00000640,-0.0000
 3924,-0.00000124,0.00000940,0.00002467,-0.00000751,0.00018777,0.000043
 33,0.00002132,-0.00000439,0.00001170,0.00000593,-0.00000628,-0.0000027
 5,-0.00000519,-0.00000178,-0.00000644,0.00000313,-0.00000810,0.0000232
 3,0.00001091,-0.00000454,-0.00000542,0.00000531,0.00001753,0.00000673,
 0.00000907,0.00000410,-0.00000782,-0.00000457,0.00000876,0.00002671,-0
 .00000733,0.00000522,0.00000236,0.00000015,-0.00000068,-0.00000089,-0.
 00000024,0.00000411,-0.00000037,0.00000007,-0.00000044,0.00000042,-0.0
 0000025,0.00000313,-0.00000259,-0.00000068,-0.00000101,0.00000016,0.00
 000184,-0.00000721,0.00001375,-0.00000144,-0.00000679,-0.00000159,0.00
 000427,-0.00000420,0.00000254,0.00000008,0.00001200,-0.00000119,-0.000
 02726,-0.00000027,-0.00000026,0.00000076,-0.00000386,0.00000178,-0.000
 00238,0.00000169,-0.00000368,0.00000347,0.00000143,0.00000124,0.000001
 50,0.00000313,0.00000299,0.00000565,0.00001073,-0.00001776,0.00000716,
 -0.00000378,-0.00000147,0.00000134,-0.00050043,-0.00212930,-0.00162031
 ,0.00028239,0.00047588,0.00050537,-0.00052347,0.00075988,0.00075025,-0
 .10271484,0.09865754,0.08032095,0.00929246,-0.02617192,-0.01950766,-0.
 00396311,0.00083870,-0.00221054,-0.00021199,-0.00154985,-0.00201191,0.
 00073639,-0.00016019,0.00076702,-0.00021508,-0.00006921,0.00020637,0.0
 0030695,-0.00014758,-0.00027281,-0.01055476,0.02775223,0.01528082,0.10
 776326,-0.00000344,-0.00000084,-0.00000114,0.00000091,0.00000124,0.000
 00095,-0.00000689,-0.00000307,-0.00001067,-0.00000332,-0.00002475,0.00
 000340,-0.00000801,-0.00002825,0.00004756,0.00000074,0.00000267,0.0000
 0471,0.00000085,-0.00000221,0.00000047,0.00000223,-0.00000245,0.000000
 70,0.00000736,0.00000162,-0.00000515,0.00000455,0.00000299,-0.00000202
 ,0.00000903,0.00001085,0.00001163,0.00000271,0.00000283,-0.00000061,0.
 00001419,0.00000888,-0.00000409,0.00000085,0.00000021,-0.00000036,-0.0
 0000182,0.00000002,0.00000067,0.00000035,0.00000105,-0.00000046,-0.000
 00031,0.00000007,0.00000007,-0.00000002,-0.00000002,0.00000074,-0.0000
 0172,-0.00000013,0.00000077,0.00000106,-0.00000362,-0.00000164,-0.0000
 0695,-0.00000161,0.00000352,0.00000111,0.00000073,0.00000102,-0.000001
 93,-0.00001656,-0.00003207,0.00000067,-0.00000009,0.00000109,0.0000044
 6,-0.00000234,-0.00000082,-0.00000173,0.00000090,0.00000083,0.00000004
 ,-0.00000117,0.00000046,-0.00000314,-0.00000305,0.00000170,0.00001221,
 -0.00000544,-0.00000198,-0.00000945,-0.00000087,0.00000266,-0.00024749
 ,-0.00072205,-0.00143529,-0.00020762,-0.00030179,-0.00055759,0.0003866
 7,-0.00017657,0.00032132,0.09988854,-0.28870196,-0.18984635,0.00693576
 ,-0.01164914,-0.00178457,-0.00282261,0.00004128,0.00011567,0.00048947,
 0.00094775,0.00136010,-0.00007269,0.00004015,0.00008247,-0.00034156,0.
 00052673,0.00006960,0.00023982,-0.00001482,-0.00026185,-0.00603007,0.0
 0855337,0.01149891,-0.09829014,0.29163628,0.00002268,0.00000284,-0.000
 00163,-0.00000267,0.00000018,-0.00000032,0.00000182,-0.00005770,0.0000
 2195,0.00002582,0.00002508,-0.00006858,0.00017837,0.00003543,-0.000134
 53,-0.00000813,0.00000477,0.00000603,-0.00002043,0.00000045,-0.0000076
 5,-0.00000294,-0.00001527,0.00000677,-0.00003058,0.00005221,0.00003995
 ,0.00000507,-0.00000696,0.00001115,-0.00000239,0.00000461,0.00001370,0
 .00000315,-0.00002891,-0.00000985,-0.00002404,0.00002574,0.00000119,0.
 00000827,0.00000362,0.00000138,0.00000494,-0.00000102,-0.00000479,0.00
 000834,-0.00000043,-0.00000082,0.00000143,0.00000261,-0.00000263,0.000
 00194,-0.00000691,-0.00000456,0.00000087,0.00000291,-0.00000288,-0.000
 00696,0.00000991,0.00000553,0.00000403,-0.00000023,-0.00000603,0.00000
 758,0.00000965,-0.00000336,0.00000382,-0.00001116,0.00000608,-0.000001
 60,0.00000009,-0.00000054,-0.00001843,0.00001434,0.00000017,0.00000720
 ,-0.00000874,0.00000737,0.00000082,0.00000410,-0.00000075,0.00001398,0
 .00001254,0.00000804,-0.00002079,-0.00003654,-0.00001037,0.00001545,-0
 .00000021,-0.00000114,0.00029368,-0.00099086,-0.00008476,0.00102647,0.
 00063100,0.00238483,0.00159901,0.00092979,0.00272581,0.06059306,-0.139
 59727,-0.11626883,0.00393958,-0.02092576,-0.01749784,-0.00387221,0.000
 88152,-0.00085767,-0.00016443,-0.00340339,-0.00343247,0.00017842,0.000
 51578,0.00088991,0.00020031,-0.00030188,0.00021462,0.00001200,0.000354
 35,0.00028621,0.00847242,-0.01834749,-0.01294772,-0.07242766,0.1802630
 1,0.14471165,0.00018100,-0.00001785,-0.00001688,-0.00003184,-0.0000048
 4,-0.00000919,0.00029921,0.00019284,0.00048458,-0.00002171,0.00007696,
 -0.00009223,0.00008494,-0.00029496,-0.00029637,-0.00007350,-0.00012136
 ,-0.00024251,-0.00012129,0.00008675,-0.00000522,-0.00000481,-0.0000152
 7,0.00002907,-0.00013825,0.00013199,0.00007110,0.00003453,-0.00002436,
 0.00002490,-0.00018987,0.00000060,-0.00004044,0.00005282,-0.00005901,0
 .00000342,-0.00089800,-0.00106151,0.00018269,-0.00001932,-0.00001009,0
 .00002356,0.00011957,-0.00000027,-0.00005899,0.00001798,-0.00001792,-0
 .00000543,-0.00000075,0.00000154,-0.00001072,0.00000525,-0.00002265,-0
 .00001391,-0.00000242,0.00000362,-0.00000415,-0.00000240,0.00001005,0.
 00000055,0.00014866,0.00003294,-0.00010785,0.00005995,0.00002428,-0.00
 001661,0.00029067,-0.00019514,-0.00008775,-0.00002498,0.00000910,-0.00
 002367,0.00000255,0.00002381,-0.00000598,0.00000440,-0.00003830,0.0000
 0026,-0.00002509,0.00003692,-0.00002906,0.00004600,0.00001589,-0.00003
 801,-0.00094762,0.00136462,0.00024074,0.00063344,0.00009309,-0.0001710
 1,-0.11731045,0.09913868,-0.14211067,-0.00214037,0.00208705,-0.0013026
 7,-0.00008520,-0.00048324,-0.00045918,-0.00015030,0.00046386,0.0003816
 6,0.00173214,-0.00051803,-0.00000753,-0.02025002,0.01843286,-0.0259906
 5,0.00115564,-0.00062225,0.00074551,0.00009348,-0.00011245,0.00024283,
 -0.00333080,-0.00371795,-0.00144245,0.00092836,0.00170957,0.00029344,-
 0.00007959,-0.00004697,-0.00008810,0.00014332,0.00000662,0.00015205,0.
 14014575,-0.00006478,-0.00000464,0.00000060,0.00000974,0.00000140,0.00
 000365,-0.00007612,0.00006684,-0.00015908,0.00004541,-0.00002611,0.000
 12275,-0.00033178,0.00005428,0.00039640,0.00003717,-0.00000588,0.00007
 566,0.00006005,-0.00001305,0.00001657,0.00000764,0.00002597,-0.0000120
 8,0.00007407,-0.00010732,-0.00010142,-0.00001798,0.00000917,-0.0000191
 0,-0.00003928,-0.00002605,-0.00005058,-0.00000459,0.00007993,0.0000201
 0,0.00038773,0.00003700,-0.00003228,-0.00000846,-0.00000167,-0.0000086
 3,-0.00004092,0.00000437,0.00001878,-0.00001611,0.00000431,0.00000058,
 -0.00000175,-0.00000483,0.00000415,-0.00000581,0.00001673,0.00000893,0
 .00000205,-0.00000362,0.00000275,0.00000416,-0.00001545,-0.00001415,0.
 00003175,-0.00001199,0.00000663,-0.00001381,-0.00001551,0.00001073,-0.
 00011107,0.00005603,0.00009481,0.00000854,-0.00000353,0.00000604,0.000
 04526,-0.00007949,-0.00003090,-0.00001873,0.00002306,-0.00001044,0.000
 00498,-0.00001811,0.00000684,-0.00020282,-0.00012232,0.00000972,0.0007
 3691,0.00016275,-0.00004821,-0.00010423,-0.00004153,0.00000287,0.13605
 131,-0.22320234,0.22140403,0.00192546,-0.00325069,0.00310558,0.0014508
 0,0.00395167,0.00291298,0.00075976,-0.00105169,0.00015508,-0.00157128,
 0.00083467,-0.00162943,-0.01377365,0.01372741,-0.01829941,-0.00501075,
 -0.00540517,-0.00969135,0.00018578,-0.00000859,0.00005074,-0.00340164,
 -0.00144777,-0.00237389,-0.00088942,-0.00041682,0.00015991,-0.00007747
 ,0.00021437,0.00003763,-0.00008845,-0.00012459,-0.00017691,-0.11701739
 ,0.21557590,-0.00014766,0.00001146,0.00000683,0.00002256,0.00000153,0.
 00000832,0.00016598,-0.00008862,-0.00007983,0.00010434,0.00000939,0.00
 009046,-0.00050020,0.00035134,0.00036529,-0.00000067,0.00013080,-0.000
 03348,0.00007829,-0.00006312,0.00003032,0.00000442,0.00004258,-0.00003
 554,0.00011207,-0.00016714,-0.00008567,-0.00003983,0.00002742,-0.00003
 694,0.00038272,-0.00004027,0.00003902,-0.00005249,0.00007124,0.0000268
 4,0.00019868,0.00042383,-0.00036631,-0.00001039,-0.00000786,-0.0000103
 1,-0.00002046,0.00000227,0.00002650,-0.00002972,0.00001147,0.00000707,
 0.00000057,-0.00000583,0.00001031,-0.00000518,0.00002371,0.00001561,0.
 00000374,-0.00000636,0.00000234,-0.00000192,-0.00001655,0.00000005,-0.
 00024798,-0.00001127,0.00010676,-0.00016263,-0.00006286,0.00003106,0.0
 0023178,0.00025781,-0.00044001,0.00001135,0.00000336,0.00000078,0.0000
 1625,-0.00003283,0.00000533,-0.00000637,0.00003280,-0.00002053,0.00000
 609,-0.00002343,0.00000954,-0.00000908,-0.00007460,0.00001864,0.000462
 78,-0.00046314,0.00047841,-0.00026763,-0.00003075,0.00003617,-0.158727
 42,0.18905214,-0.23309506,-0.00121364,0.00270972,-0.00330280,-0.000211
 38,0.00103631,-0.00042372,0.00019877,0.00055454,0.00053088,0.00028026,
 0.00076837,-0.00059804,-0.01156035,0.00915451,-0.01469269,0.00034762,-
 0.00356503,0.00115084,0.00021699,-0.00039286,-0.00065312,-0.00145384,-
 0.00228919,0.00080451,0.00144778,0.00025311,0.00159584,0.00001706,0.00
 007492,0.00003596,0.00022987,0.00006010,0.00009694,0.16967564,-0.19856
 115,0.24804580,0.00005305,0.00002116,-0.00000292,-0.00000409,-0.000001
 31,-0.00000029,0.00002123,-0.00005135,0.00011094,-0.00008320,-0.000013
 61,-0.00002473,-0.00010612,0.00018233,-0.00014807,-0.00001389,-0.00000
 071,-0.00002968,-0.00003480,-0.00001967,-0.00001389,-0.00003598,0.0000
 2573,-0.00005960,0.00006141,-0.00005121,0.00014079,0.00001515,0.000019
 94,-0.00000147,0.00004702,0.00000241,0.00000376,-0.00027996,-0.0002333
 2,-0.00008531,-0.00022124,0.00018001,-0.00010499,0.00000198,0.00000413
 ,0.00000258,0.00001842,-0.00000238,-0.00001141,-0.00000623,-0.00000162
 ,0.00000537,0.00003014,0.00002160,-0.00001346,0.00000493,-0.00000499,-
 0.00000187,-0.00000050,-0.00000229,-0.00002269,0.00001624,0.00000903,0
 .00000644,-0.00001541,0.00000291,-0.00000638,-0.00001022,0.00000652,0.
 00000086,0.00002225,0.00001663,-0.00003574,-0.00000954,-0.00000145,-0.
 00000964,-0.00062711,0.00043026,0.00068371,0.00016758,0.00001183,-0.00
 006363,0.00001816,0.00001140,-0.00001398,0.00009780,0.00006109,-0.0000
 3683,0.00014175,-0.00023400,0.00022674,-0.00005521,-0.00003127,-0.0000
 0854,0.00067010,-0.00109945,-0.00000178,-0.06861675,0.10780116,-0.0872
 8886,-0.00161795,0.00056983,0.00677155,-0.00025124,-0.00018807,-0.0005
 1859,0.00332418,-0.00142895,-0.00299914,-0.00040033,-0.00066294,-0.000
 01287,-0.00768589,0.01843086,-0.01875372,-0.00033401,0.00081901,-0.000
 75105,0.00007614,-0.00006568,0.00003010,0.00008967,0.00000635,0.000080
 34,0.00006910,-0.00006169,0.00007702,-0.00006831,0.00005072,-0.0001793
 6,-0.00033109,0.00105974,0.00045325,0.07586276,0.00002999,-0.00000511,
 -0.00000293,-0.00000603,-0.00000124,-0.00000243,0.00003456,-0.00000942
 ,0.00011859,-0.00003250,-0.00000066,-0.00006312,0.00011446,-0.00001256
 ,-0.00017813,-0.00001998,0.00000289,-0.00004385,-0.00002997,0.00001712
 ,-0.00000278,0.00000811,-0.00002447,0.00002954,-0.00011272,0.00008334,
 0.00002635,0.00001208,-0.00001371,0.00000955,0.00002324,-0.00000705,0.
 00000359,0.00015712,-0.00000134,0.00000728,-0.00015638,0.00009501,-0.0
 0007963,0.00000342,-0.00000228,0.00000388,0.00002449,-0.00000340,-0.00
 001204,0.00001346,-0.00000314,-0.00000374,-0.00001003,-0.00000433,0.00
 000082,0.00000082,-0.00000857,-0.00000587,-0.00000201,0.00000221,0.000
 00552,-0.00000944,0.00000544,0.00000650,-0.00000870,0.00000379,-0.0000
 1015,0.00000041,0.00000631,-0.00000137,0.00001336,-0.00001496,-0.00000
 262,-0.00000316,0.00000364,-0.00000024,0.00025920,-0.00019046,-0.00027
 438,-0.00003877,-0.00002146,0.00002028,-0.00004101,0.00000668,0.000003
 36,0.00009031,0.00005325,-0.00001898,-0.00021312,-0.00039585,0.0001772
 3,0.00001470,-0.00001147,0.00000583,0.00025784,-0.00089643,0.00006929,
 0.12997871,-0.34347334,0.20162226,-0.00038506,-0.00464804,-0.00080498,
 -0.00072629,0.00052328,-0.00057082,-0.00104625,0.00045248,-0.00254075,
 -0.00089556,-0.00018191,-0.00074723,-0.00229991,0.01990259,-0.00284920
 ,-0.00010905,-0.00006089,-0.00002489,0.00008208,0.00011224,0.00003361,
 0.00005985,0.00005807,-0.00003195,0.00004867,-0.00002580,-0.00001007,0
 .00004957,0.00000778,0.00013109,0.00045817,0.00056289,0.00083812,-0.12
 558868,0.32811888,-0.00012098,-0.00002076,-0.00000142,0.00001461,0.000
 00149,0.00000732,0.00004823,0.00024167,-0.00017523,0.00012245,-0.00006
 081,0.00023005,-0.00047431,-0.00025510,0.00077743,0.00003432,-0.000001
 54,0.00000444,0.00009544,0.00000134,0.00004268,0.00003454,0.00003270,0
 .00001166,0.00013252,-0.00016721,-0.00022991,-0.00003746,0.00001365,-0
 .00004008,0.00000139,-0.00000878,-0.00003575,0.00015410,0.00027990,0.0
 0004290,0.00014206,-0.00013889,-0.00005718,-0.00002627,-0.00001526,-0.
 00000733,-0.00002764,0.00000570,0.00002271,-0.00002626,0.00000653,-0.0
 0000050,-0.00001872,-0.00001994,0.00001406,-0.00001160,0.00002941,0.00
 001764,0.00000122,-0.00000656,0.00001495,-0.00000432,-0.00003607,-0.00
 002025,-0.00001783,0.00000057,0.00002495,-0.00001943,-0.00003961,0.000
 00912,0.00000046,0.00005575,-0.00004735,0.00001211,0.00000072,0.000004
 13,0.00050333,-0.00036186,-0.00025661,-0.00013040,0.00002863,0.0000014
 6,-0.00003342,-0.00004102,0.00000303,-0.00010246,-0.00008466,-0.000018
 83,0.00035168,0.00035551,0.00002374,-0.00009914,0.00000634,0.00001928,
 0.00090097,-0.00152792,0.00088961,-0.08506321,0.16298405,-0.15322687,0
 .00680820,0.00155223,0.00690878,-0.00076888,0.00076171,-0.00113106,-0.
 00320758,-0.00534977,-0.00049822,-0.00061879,-0.00021758,-0.00007751,-
 0.02167624,0.03420450,-0.03315900,0.00044147,-0.00016016,0.00018746,0.
 00001407,-0.00017959,0.00005518,-0.00005991,0.00024575,0.00006645,0.00
 003423,0.00003841,-0.00001778,-0.00003487,0.00009253,-0.00008958,0.000
 12524,0.00258452,0.00029764,0.10260706,-0.19483053,0.17941376\\0.00000
 271,-0.00000143,0.00000322,-0.00000154,0.00000378,-0.00000019,0.000004
 41,-0.00000642,0.00000189,-0.00000632,0.00000025,-0.00000421,-0.000005
 25,-0.00000155,-0.00000136,0.00000257,0.00000168,0.00000219,-0.0000031
 8,0.00000303,0.00000002,0.00000283,0.00000157,0.00000035,0.00000285,0.
 00000329,0.00000723,0.00000044,0.00000314,0.00000102,-0.00000062,0.000
 00409,0.00000110,0.00000209,0.00000379,-0.00000148,0.00000046,-0.00000
 455,0.00000337,-0.00000062,0.00000142,0.00000043,-0.00000137,0.0000006
 6,0.00000044,0.00000125,0.00000227,0.00000185,0.00000073,0.00000100,0.
 00000129,0.00000176,0.00000060,0.00000181,0.00000158,-0.00000037,0.000
 00050,0.00000174,-0.00000047,0.00000017,-0.00000186,-0.00000038,-0.000
 00123,-0.00000007,-0.00000167,-0.00000129,-0.00000234,-0.00000337,0.00
 000004,-0.00000007,0.00000032,0.00000054,0.00000028,-0.00000047,0.0000
 0045,0.00000052,0.00000054,0.00000098,-0.00000065,0.00000108,0.0000010
 5,-0.00000230,0.00000094,-0.00000011,0.00000067,0.00000333,-0.00000423
 ,-0.00000057,0.00000434,0.00000155,-0.00000337,-0.00000223,-0.00000610
 ,-0.00001172,-0.00000739,-0.00001061,-0.00000301,-0.00000891,-0.000003
 26,-0.00000321,-0.00000351,-0.00000484,0.00000116,0.00000830,-0.000001
 78,0.00000145,-0.00000405,0.00000106,0.00001004,0.00001255,0.00001886,
 0.00000690,-0.00000251,-0.00000391,-0.00000133,-0.00000215,-0.00000268
 ,-0.00000151,-0.00000282,-0.00000117,0.00000156,-0.00000284,-0.0000002
 7,0.00000154,-0.00000285,-0.00000133,-0.00000080,-0.00000268,0.0000005
 5,0.00000216,0.00000064,-0.00000188\\\@


 THERE'S SMALL CHOICE IN A BOWL OF ROTTEN APPLES.
                     SHAKESPEARE
 Job cpu time:       0 days 18 hours 54 minutes 18.0 seconds.
 Elapsed time:       0 days  1 hours 11 minutes  4.5 seconds.
 File lengths (MBytes):  RWF=   1962 Int=      0 D2E=      0 Chk=     41 Scr=      1
 Normal termination of Gaussian 16 at Tue May  4 18:19:24 2021.
