 Entering Gaussian System, Link 0=g16
 Input=Tem_Ser_Cb_5.gjf
 Output=Tem_Ser_Cb_5.log
 Initial command:
 /share/apps/g16/l1.exe "/backup/38279.cluster.hpc/Gau-36036.inp" -scrdir="/backup/38279.cluster.hpc/"
 Entering Link 1 = /share/apps/g16/l1.exe PID=     36037.
  
 Copyright (c) 1988,1990,1992,1993,1995,1998,2003,2009,2016,
            Gaussian, Inc.  All Rights Reserved.
  
 This is part of the Gaussian(R) 16 program.  It is based on
 the Gaussian(R) 09 system (copyright 2009, Gaussian, Inc.),
 the Gaussian(R) 03 system (copyright 2003, Gaussian, Inc.),
 the Gaussian(R) 98 system (copyright 1998, Gaussian, Inc.),
 the Gaussian(R) 94 system (copyright 1995, Gaussian, Inc.),
 the Gaussian 92(TM) system (copyright 1992, Gaussian, Inc.),
 the Gaussian 90(TM) system (copyright 1990, Gaussian, Inc.),
 the Gaussian 88(TM) system (copyright 1988, Gaussian, Inc.),
 the Gaussian 86(TM) system (copyright 1986, Carnegie Mellon
 University), and the Gaussian 82(TM) system (copyright 1983,
 Carnegie Mellon University). Gaussian is a federally registered
 trademark of Gaussian, Inc.
  
 This software contains proprietary and confidential information,
 including trade secrets, belonging to Gaussian, Inc.
  
 This software is provided under written license and may be
 used, copied, transmitted, or stored only in accord with that
 written license.
  
 The following legend is applicable only to US Government
 contracts under FAR:
  
                    RESTRICTED RIGHTS LEGEND
  
 Use, reproduction and disclosure by the US Government is
 subject to restrictions as set forth in subparagraphs (a)
 and (c) of the Commercial Computer Software - Restricted
 Rights clause in FAR 52.227-19.
  
 Gaussian, Inc.
 340 Quinnipiac St., Bldg. 40, Wallingford CT 06492
  
  
 ---------------------------------------------------------------
 Warning -- This program may not be used in any manner that
 competes with the business of Gaussian, Inc. or will provide
 assistance to any competitor of Gaussian, Inc.  The licensee
 of this program is prohibited from giving any competitor of
 Gaussian, Inc. access to this program.  By using this program,
 the user acknowledges that Gaussian, Inc. is engaged in the
 business of creating and licensing software in the field of
 computational chemistry and represents and warrants to the
 licensee that it is not a competitor of Gaussian, Inc. and that
 it will not use this program in any manner prohibited above.
 ---------------------------------------------------------------
  

 Cite this work as:
 Gaussian 16, Revision A.03,
 M. J. Frisch, G. W. Trucks, H. B. Schlegel, G. E. Scuseria, 
 M. A. Robb, J. R. Cheeseman, G. Scalmani, V. Barone, 
 G. A. Petersson, H. Nakatsuji, X. Li, M. Caricato, A. V. Marenich, 
 J. Bloino, B. G. Janesko, R. Gomperts, B. Mennucci, H. P. Hratchian, 
 J. V. Ortiz, A. F. Izmaylov, J. L. Sonnenberg, D. Williams-Young, 
 F. Ding, F. Lipparini, F. Egidi, J. Goings, B. Peng, A. Petrone, 
 T. Henderson, D. Ranasinghe, V. G. Zakrzewski, J. Gao, N. Rega, 
 G. Zheng, W. Liang, M. Hada, M. Ehara, K. Toyota, R. Fukuda, 
 J. Hasegawa, M. Ishida, T. Nakajima, Y. Honda, O. Kitao, H. Nakai, 
 T. Vreven, K. Throssell, J. A. Montgomery, Jr., J. E. Peralta, 
 F. Ogliaro, M. J. Bearpark, J. J. Heyd, E. N. Brothers, K. N. Kudin, 
 V. N. Staroverov, T. A. Keith, R. Kobayashi, J. Normand, 
 K. Raghavachari, A. P. Rendell, J. C. Burant, S. S. Iyengar, 
 J. Tomasi, M. Cossi, J. M. Millam, M. Klene, C. Adamo, R. Cammi, 
 J. W. Ochterski, R. L. Martin, K. Morokuma, O. Farkas, 
 J. B. Foresman, and D. J. Fox, Gaussian, Inc., Wallingford CT, 2016.
 
 ******************************************
 Gaussian 16:  ES64L-G16RevA.03 25-Dec-2016
                27-Apr-2021 
 ******************************************
 %mem=2GB
 %nprocshared=8
 Will use up to    8 processors via shared memory.
 %chk=Tem_Ser_Cb_5.chk
 -----------------------------------------------------
 # opt freq 6-311g(d,p) scrf=(solvent=water,pcm) m062x
 -----------------------------------------------------
 1/18=20,19=15,26=3,38=1/1,3;
 2/9=110,12=2,17=6,18=5,40=1/2;
 3/5=4,6=6,7=101,11=2,25=1,30=1,70=2201,71=1,72=1,74=-55/1,2,3;
 4//1;
 5/5=2,38=5,53=1/2;
 6/7=2,8=2,9=2,10=2,28=1/1;
 7//1,2,3,16;
 1/18=20,19=15,26=3/3(2);
 2/9=110/2;
 99//99;
 2/9=110/2;
 3/5=4,6=6,7=101,11=2,25=1,30=1,70=2205,71=1,72=1,74=-55/1,2,3;
 4/5=5,16=3,69=1/1;
 5/5=2,38=5,53=1/2;
 7//1,2,3,16;
 1/18=20,19=15,26=3/3(-5);
 2/9=110/2;
 6/7=2,8=2,9=2,10=2,19=2,28=1/1;
 99/9=1/99;
 -------------------
 Title Card Required
 -------------------
 Symbolic Z-matrix:
 Charge =  0 Multiplicity = 2
 O                    0     4.43107   0.47795   1.68828  L 
 H                    0     4.47003   1.32714   2.13856  L 
 C                    0     1.44376   1.24283  -0.53119  L 
 N                    0     1.18287  -0.18949  -0.87163  L 
 O                    0     0.15315  -0.41742  -1.58348  L 
 C                    0     2.82661   1.38693   0.11155  L 
 C                    0     3.1244    0.32097   1.15466  L 
 C                    0     3.09087  -1.0331    0.47462  L 
 C                    0     1.72933  -1.37252  -0.13758  L 
 C                    0     1.89653  -2.50445  -1.15201  L 
 C                    0     1.40929   2.04066  -1.83604  L 
 C                    0     0.71948  -1.79877   0.93754  L 
 C                    0     0.33084   1.73963   0.4002   L 
 H                    0     2.88852   2.38647   0.55215  L 
 H                    0     3.60231   1.31827  -0.65837  L 
 H                    0     3.35295  -1.81897   1.18715  L 
 H                    0     3.8574   -1.02795  -0.30762  L 
 H                    0     2.35621  -3.36076  -0.65434  L 
 H                    0     2.54314  -2.18768  -1.97271  L 
 H                    0     0.93124  -2.80582  -1.55627  L 
 H                    0     2.12019   1.62773  -2.55418  L 
 H                    0     1.68577   3.0755   -1.62427  L 
 H                    0     0.41374   2.03188  -2.27927  L 
 H                    0     2.38737   0.36036   1.96646  L 
 H                    0    -0.24392  -2.02875   0.47776  L 
 H                    0     1.08678  -2.69939   1.43405  L 
 H                    0     0.57322  -1.02883   1.69765  L 
 H                    0     0.47225   2.80507   0.59417  L 
 H                    0    -0.64373   1.60651  -0.0708   L 
 H                    0     0.32648   1.2177    1.3591   L 
 O                    0    -1.58274  -0.81061  -4.40497  H 
 O                    0    -1.58451  -3.97694  -4.06656  H 
 O                    0    -0.50285  -3.47524  -2.17707  H 
 N                    0    -2.97013  -2.2364   -1.29678  H 
 C                    0    -2.52149  -2.26876  -2.68083  H 
 C                    0    -1.96686  -0.88668  -3.04907  H 
 C                    0    -1.42901  -3.29675  -2.9265   H 
 H                    0    -3.36734  -2.49071  -3.33328  H 
 H                    0    -2.73465  -0.1484   -2.8028   H 
 H                    0    -1.08139  -0.69068  -2.43694  H 
 H                    0    -2.15649  -2.17772  -0.6892   H 
 H                    0    -3.4372   -3.1064   -1.06172  H 
 H                    0    -2.40276  -0.65545  -4.89727  H 
 H                    0    -0.83154  -4.57915  -4.16386  H 
 
 Add virtual bond connecting atoms H40        and O5         Dist= 2.88D+00.

 GradGradGradGradGradGradGradGradGradGradGradGradGradGradGradGradGradGrad
 Berny optimization.
 Initialization pass.
                           ----------------------------
                           !    Initial Parameters    !
                           ! (Angstroms and Degrees)  !
 --------------------------                            --------------------------
 ! Name  Definition              Value          Derivative Info.                !
 --------------------------------------------------------------------------------
 ! R1    R(1,2)                  0.962          estimate D2E/DX2                !
 ! R2    R(1,7)                  1.4201         estimate D2E/DX2                !
 ! R3    R(3,4)                  1.4952         estimate D2E/DX2                !
 ! R4    R(3,6)                  1.5317         estimate D2E/DX2                !
 ! R5    R(3,11)                 1.5298         estimate D2E/DX2                !
 ! R6    R(3,13)                 1.5339         estimate D2E/DX2                !
 ! R7    R(4,5)                  1.2724         estimate D2E/DX2                !
 ! R8    R(4,9)                  1.4957         estimate D2E/DX2                !
 ! R9    R(5,40)                 1.5255         estimate D2E/DX2                !
 ! R10   R(6,7)                  1.5209         estimate D2E/DX2                !
 ! R11   R(6,14)                 1.0941         estimate D2E/DX2                !
 ! R12   R(6,15)                 1.0951         estimate D2E/DX2                !
 ! R13   R(7,8)                  1.5156         estimate D2E/DX2                !
 ! R14   R(7,24)                 1.0972         estimate D2E/DX2                !
 ! R15   R(8,9)                  1.5309         estimate D2E/DX2                !
 ! R16   R(8,16)                 1.0927         estimate D2E/DX2                !
 ! R17   R(8,17)                 1.0952         estimate D2E/DX2                !
 ! R18   R(9,10)                 1.5292         estimate D2E/DX2                !
 ! R19   R(9,12)                 1.5354         estimate D2E/DX2                !
 ! R20   R(10,18)                1.0919         estimate D2E/DX2                !
 ! R21   R(10,19)                1.0918         estimate D2E/DX2                !
 ! R22   R(10,20)                1.0891         estimate D2E/DX2                !
 ! R23   R(11,21)                1.0916         estimate D2E/DX2                !
 ! R24   R(11,22)                1.0919         estimate D2E/DX2                !
 ! R25   R(11,23)                1.0898         estimate D2E/DX2                !
 ! R26   R(12,25)                1.092          estimate D2E/DX2                !
 ! R27   R(12,26)                1.092          estimate D2E/DX2                !
 ! R28   R(12,27)                1.0918         estimate D2E/DX2                !
 ! R29   R(13,28)                1.0921         estimate D2E/DX2                !
 ! R30   R(13,29)                1.0906         estimate D2E/DX2                !
 ! R31   R(13,30)                1.0917         estimate D2E/DX2                !
 ! R32   R(31,36)                1.4113         estimate D2E/DX2                !
 ! R33   R(31,43)                0.9689         estimate D2E/DX2                !
 ! R34   R(32,37)                1.3366         estimate D2E/DX2                !
 ! R35   R(32,44)                0.9691         estimate D2E/DX2                !
 ! R36   R(33,37)                1.2047         estimate D2E/DX2                !
 ! R37   R(34,35)                1.4553         estimate D2E/DX2                !
 ! R38   R(34,41)                1.0172         estimate D2E/DX2                !
 ! R39   R(34,42)                1.015          estimate D2E/DX2                !
 ! R40   R(35,36)                1.5341         estimate D2E/DX2                !
 ! R41   R(35,37)                1.5201         estimate D2E/DX2                !
 ! R42   R(35,38)                1.0911         estimate D2E/DX2                !
 ! R43   R(36,39)                1.0933         estimate D2E/DX2                !
 ! R44   R(36,40)                1.0942         estimate D2E/DX2                !
 ! A1    A(2,1,7)              108.1029         estimate D2E/DX2                !
 ! A2    A(4,3,6)              110.0722         estimate D2E/DX2                !
 ! A3    A(4,3,11)             107.5451         estimate D2E/DX2                !
 ! A4    A(4,3,13)             108.779          estimate D2E/DX2                !
 ! A5    A(6,3,11)             109.2199         estimate D2E/DX2                !
 ! A6    A(6,3,13)             111.7009         estimate D2E/DX2                !
 ! A7    A(11,3,13)            109.4297         estimate D2E/DX2                !
 ! A8    A(3,4,5)              116.1167         estimate D2E/DX2                !
 ! A9    A(3,4,9)              125.6075         estimate D2E/DX2                !
 ! A10   A(5,4,9)              115.3762         estimate D2E/DX2                !
 ! A11   A(3,6,7)              113.4931         estimate D2E/DX2                !
 ! A12   A(3,6,14)             107.8197         estimate D2E/DX2                !
 ! A13   A(3,6,15)             109.7903         estimate D2E/DX2                !
 ! A14   A(7,6,14)             110.6731         estimate D2E/DX2                !
 ! A15   A(7,6,15)             107.4316         estimate D2E/DX2                !
 ! A16   A(14,6,15)            107.4776         estimate D2E/DX2                !
 ! A17   A(1,7,6)              111.1247         estimate D2E/DX2                !
 ! A18   A(1,7,8)              106.7208         estimate D2E/DX2                !
 ! A19   A(1,7,24)             109.6391         estimate D2E/DX2                !
 ! A20   A(6,7,8)              108.3073         estimate D2E/DX2                !
 ! A21   A(6,7,24)             110.535          estimate D2E/DX2                !
 ! A22   A(8,7,24)             110.4386         estimate D2E/DX2                !
 ! A23   A(7,8,9)              113.4014         estimate D2E/DX2                !
 ! A24   A(7,8,16)             110.1604         estimate D2E/DX2                !
 ! A25   A(7,8,17)             107.5048         estimate D2E/DX2                !
 ! A26   A(9,8,16)             108.3376         estimate D2E/DX2                !
 ! A27   A(9,8,17)             109.7481         estimate D2E/DX2                !
 ! A28   A(16,8,17)            107.5333         estimate D2E/DX2                !
 ! A29   A(4,9,8)              110.2322         estimate D2E/DX2                !
 ! A30   A(4,9,10)             107.45           estimate D2E/DX2                !
 ! A31   A(4,9,12)             108.8415         estimate D2E/DX2                !
 ! A32   A(8,9,10)             109.399          estimate D2E/DX2                !
 ! A33   A(8,9,12)             111.4991         estimate D2E/DX2                !
 ! A34   A(10,9,12)            109.3262         estimate D2E/DX2                !
 ! A35   A(9,10,18)            108.9164         estimate D2E/DX2                !
 ! A36   A(9,10,19)            110.4057         estimate D2E/DX2                !
 ! A37   A(9,10,20)            110.7432         estimate D2E/DX2                !
 ! A38   A(18,10,19)           108.7127         estimate D2E/DX2                !
 ! A39   A(18,10,20)           108.985          estimate D2E/DX2                !
 ! A40   A(19,10,20)           109.0379         estimate D2E/DX2                !
 ! A41   A(3,11,21)            110.4366         estimate D2E/DX2                !
 ! A42   A(3,11,22)            108.8531         estimate D2E/DX2                !
 ! A43   A(3,11,23)            111.3023         estimate D2E/DX2                !
 ! A44   A(21,11,22)           108.7358         estimate D2E/DX2                !
 ! A45   A(21,11,23)           108.9241         estimate D2E/DX2                !
 ! A46   A(22,11,23)           108.5321         estimate D2E/DX2                !
 ! A47   A(9,12,25)            110.115          estimate D2E/DX2                !
 ! A48   A(9,12,26)            109.0326         estimate D2E/DX2                !
 ! A49   A(9,12,27)            112.324          estimate D2E/DX2                !
 ! A50   A(25,12,26)           108.33           estimate D2E/DX2                !
 ! A51   A(25,12,27)           108.8731         estimate D2E/DX2                !
 ! A52   A(26,12,27)           108.0666         estimate D2E/DX2                !
 ! A53   A(3,13,28)            109.26           estimate D2E/DX2                !
 ! A54   A(3,13,29)            110.279          estimate D2E/DX2                !
 ! A55   A(3,13,30)            112.4191         estimate D2E/DX2                !
 ! A56   A(28,13,29)           108.1485         estimate D2E/DX2                !
 ! A57   A(28,13,30)           108.1138         estimate D2E/DX2                !
 ! A58   A(29,13,30)           108.5064         estimate D2E/DX2                !
 ! A59   A(36,31,43)           105.4513         estimate D2E/DX2                !
 ! A60   A(37,32,44)           108.1479         estimate D2E/DX2                !
 ! A61   A(35,34,41)           108.8302         estimate D2E/DX2                !
 ! A62   A(35,34,42)           110.0615         estimate D2E/DX2                !
 ! A63   A(41,34,42)           106.2129         estimate D2E/DX2                !
 ! A64   A(34,35,36)           108.6456         estimate D2E/DX2                !
 ! A65   A(34,35,37)           112.9734         estimate D2E/DX2                !
 ! A66   A(34,35,38)           109.5265         estimate D2E/DX2                !
 ! A67   A(36,35,37)           108.0977         estimate D2E/DX2                !
 ! A68   A(36,35,38)           108.6636         estimate D2E/DX2                !
 ! A69   A(37,35,38)           108.842          estimate D2E/DX2                !
 ! A70   A(31,36,35)           112.1842         estimate D2E/DX2                !
 ! A71   A(31,36,39)           111.7875         estimate D2E/DX2                !
 ! A72   A(31,36,40)           107.913          estimate D2E/DX2                !
 ! A73   A(35,36,39)           107.4831         estimate D2E/DX2                !
 ! A74   A(35,36,40)           108.6432         estimate D2E/DX2                !
 ! A75   A(39,36,40)           108.7445         estimate D2E/DX2                !
 ! A76   A(32,37,33)           123.0007         estimate D2E/DX2                !
 ! A77   A(32,37,35)           113.4771         estimate D2E/DX2                !
 ! A78   A(33,37,35)           123.5176         estimate D2E/DX2                !
 ! A79   L(4,5,40,20,-1)       180.0            estimate D2E/DX2                !
 ! A80   L(5,40,36,33,-1)      180.0            estimate D2E/DX2                !
 ! A81   L(4,5,40,20,-2)       180.0            estimate D2E/DX2                !
 ! A82   L(5,40,36,33,-2)      180.0            estimate D2E/DX2                !
 ! D1    D(2,1,7,6)             63.0571         estimate D2E/DX2                !
 ! D2    D(2,1,7,8)           -179.0593         estimate D2E/DX2                !
 ! D3    D(2,1,7,24)           -59.4329         estimate D2E/DX2                !
 ! D4    D(6,3,4,5)           -170.2388         estimate D2E/DX2                !
 ! D5    D(6,3,4,9)             30.0193         estimate D2E/DX2                !
 ! D6    D(11,3,4,5)           -51.3502         estimate D2E/DX2                !
 ! D7    D(11,3,4,9)           148.9079         estimate D2E/DX2                !
 ! D8    D(13,3,4,5)            67.0741         estimate D2E/DX2                !
 ! D9    D(13,3,4,9)           -92.6677         estimate D2E/DX2                !
 ! D10   D(4,3,6,7)            -44.165          estimate D2E/DX2                !
 ! D11   D(4,3,6,14)          -167.1258         estimate D2E/DX2                !
 ! D12   D(4,3,6,15)            76.0704         estimate D2E/DX2                !
 ! D13   D(11,3,6,7)          -162.0231         estimate D2E/DX2                !
 ! D14   D(11,3,6,14)           75.0161         estimate D2E/DX2                !
 ! D15   D(11,3,6,15)          -41.7876         estimate D2E/DX2                !
 ! D16   D(13,3,6,7)            76.7855         estimate D2E/DX2                !
 ! D17   D(13,3,6,14)          -46.1753         estimate D2E/DX2                !
 ! D18   D(13,3,6,15)         -162.9791         estimate D2E/DX2                !
 ! D19   D(4,3,11,21)          -55.6766         estimate D2E/DX2                !
 ! D20   D(4,3,11,22)         -174.9809         estimate D2E/DX2                !
 ! D21   D(4,3,11,23)           65.4397         estimate D2E/DX2                !
 ! D22   D(6,3,11,21)           63.7574         estimate D2E/DX2                !
 ! D23   D(6,3,11,22)          -55.547          estimate D2E/DX2                !
 ! D24   D(6,3,11,23)         -175.1264         estimate D2E/DX2                !
 ! D25   D(13,3,11,21)        -173.6809         estimate D2E/DX2                !
 ! D26   D(13,3,11,22)          67.0148         estimate D2E/DX2                !
 ! D27   D(13,3,11,23)         -52.5646         estimate D2E/DX2                !
 ! D28   D(4,3,13,28)         -175.8114         estimate D2E/DX2                !
 ! D29   D(4,3,13,29)          -57.0701         estimate D2E/DX2                !
 ! D30   D(4,3,13,30)           64.161          estimate D2E/DX2                !
 ! D31   D(6,3,13,28)           62.4888         estimate D2E/DX2                !
 ! D32   D(6,3,13,29)         -178.7699         estimate D2E/DX2                !
 ! D33   D(6,3,13,30)          -57.5388         estimate D2E/DX2                !
 ! D34   D(11,3,13,28)         -58.5808         estimate D2E/DX2                !
 ! D35   D(11,3,13,29)          60.1605         estimate D2E/DX2                !
 ! D36   D(11,3,13,30)        -178.6085         estimate D2E/DX2                !
 ! D37   D(3,4,36,31)           88.9424         estimate D2E/DX2                !
 ! D38   D(3,4,36,35)         -149.1973         estimate D2E/DX2                !
 ! D39   D(3,4,36,39)          -32.4981         estimate D2E/DX2                !
 ! D40   D(9,4,36,31)         -109.2117         estimate D2E/DX2                !
 ! D41   D(9,4,36,35)           12.6486         estimate D2E/DX2                !
 ! D42   D(9,4,36,39)          129.3478         estimate D2E/DX2                !
 ! D43   D(3,4,9,8)            -30.1029         estimate D2E/DX2                !
 ! D44   D(3,4,9,10)          -149.2411         estimate D2E/DX2                !
 ! D45   D(3,4,9,12)            92.4766         estimate D2E/DX2                !
 ! D46   D(5,4,9,8)            170.024          estimate D2E/DX2                !
 ! D47   D(5,4,9,10)            50.8858         estimate D2E/DX2                !
 ! D48   D(5,4,9,12)           -67.3966         estimate D2E/DX2                !
 ! D49   D(3,6,7,1)            178.2629         estimate D2E/DX2                !
 ! D50   D(3,6,7,8)             61.3451         estimate D2E/DX2                !
 ! D51   D(3,6,7,24)           -59.7668         estimate D2E/DX2                !
 ! D52   D(14,6,7,1)           -60.3604         estimate D2E/DX2                !
 ! D53   D(14,6,7,8)          -177.2782         estimate D2E/DX2                !
 ! D54   D(14,6,7,24)           61.6099         estimate D2E/DX2                !
 ! D55   D(15,6,7,1)            56.7002         estimate D2E/DX2                !
 ! D56   D(15,6,7,8)           -60.2176         estimate D2E/DX2                !
 ! D57   D(15,6,7,24)          178.6704         estimate D2E/DX2                !
 ! D58   D(1,7,8,9)            178.9311         estimate D2E/DX2                !
 ! D59   D(1,7,8,16)            57.3251         estimate D2E/DX2                !
 ! D60   D(1,7,8,17)           -59.5662         estimate D2E/DX2                !
 ! D61   D(6,7,8,9)            -61.3487         estimate D2E/DX2                !
 ! D62   D(6,7,8,16)           177.0453         estimate D2E/DX2                !
 ! D63   D(6,7,8,17)            60.154          estimate D2E/DX2                !
 ! D64   D(24,7,8,9)            59.8229         estimate D2E/DX2                !
 ! D65   D(24,7,8,16)          -61.7831         estimate D2E/DX2                !
 ! D66   D(24,7,8,17)         -178.6744         estimate D2E/DX2                !
 ! D67   D(7,8,9,4)             44.3545         estimate D2E/DX2                !
 ! D68   D(7,8,9,10)           162.2989         estimate D2E/DX2                !
 ! D69   D(7,8,9,12)           -76.6497         estimate D2E/DX2                !
 ! D70   D(16,8,9,4)           166.9748         estimate D2E/DX2                !
 ! D71   D(16,8,9,10)          -75.0809         estimate D2E/DX2                !
 ! D72   D(16,8,9,12)           45.9705         estimate D2E/DX2                !
 ! D73   D(17,8,9,4)           -75.8832         estimate D2E/DX2                !
 ! D74   D(17,8,9,10)           42.0611         estimate D2E/DX2                !
 ! D75   D(17,8,9,12)          163.1125         estimate D2E/DX2                !
 ! D76   D(4,9,10,18)          176.3255         estimate D2E/DX2                !
 ! D77   D(4,9,10,19)           57.0288         estimate D2E/DX2                !
 ! D78   D(4,9,10,20)          -63.8384         estimate D2E/DX2                !
 ! D79   D(8,9,10,18)           56.6546         estimate D2E/DX2                !
 ! D80   D(8,9,10,19)          -62.6421         estimate D2E/DX2                !
 ! D81   D(8,9,10,20)          176.4908         estimate D2E/DX2                !
 ! D82   D(12,9,10,18)         -65.7059         estimate D2E/DX2                !
 ! D83   D(12,9,10,19)         174.9974         estimate D2E/DX2                !
 ! D84   D(12,9,10,20)          54.1303         estimate D2E/DX2                !
 ! D85   D(4,9,12,25)           57.8071         estimate D2E/DX2                !
 ! D86   D(4,9,12,26)          176.5335         estimate D2E/DX2                !
 ! D87   D(4,9,12,27)          -63.712          estimate D2E/DX2                !
 ! D88   D(8,9,12,25)          179.6196         estimate D2E/DX2                !
 ! D89   D(8,9,12,26)          -61.6541         estimate D2E/DX2                !
 ! D90   D(8,9,12,27)           58.1005         estimate D2E/DX2                !
 ! D91   D(10,9,12,25)         -59.2866         estimate D2E/DX2                !
 ! D92   D(10,9,12,26)          59.4398         estimate D2E/DX2                !
 ! D93   D(10,9,12,27)         179.1943         estimate D2E/DX2                !
 ! D94   D(43,31,36,35)         80.9531         estimate D2E/DX2                !
 ! D95   D(43,31,36,39)        -39.8702         estimate D2E/DX2                !
 ! D96   D(43,31,36,40)       -159.4019         estimate D2E/DX2                !
 ! D97   D(44,32,37,33)         -1.6304         estimate D2E/DX2                !
 ! D98   D(44,32,37,35)        177.6142         estimate D2E/DX2                !
 ! D99   D(41,34,35,36)        -70.3899         estimate D2E/DX2                !
 ! D100  D(41,34,35,37)         49.5527         estimate D2E/DX2                !
 ! D101  D(41,34,35,38)        171.0546         estimate D2E/DX2                !
 ! D102  D(42,34,35,36)        173.5964         estimate D2E/DX2                !
 ! D103  D(42,34,35,37)        -66.461          estimate D2E/DX2                !
 ! D104  D(42,34,35,38)         55.0409         estimate D2E/DX2                !
 ! D105  D(34,35,36,31)       -176.4423         estimate D2E/DX2                !
 ! D106  D(34,35,36,39)        -53.1653         estimate D2E/DX2                !
 ! D107  D(34,35,36,40)         64.3402         estimate D2E/DX2                !
 ! D108  D(37,35,36,31)         60.6263         estimate D2E/DX2                !
 ! D109  D(37,35,36,39)       -176.0967         estimate D2E/DX2                !
 ! D110  D(37,35,36,40)        -58.5912         estimate D2E/DX2                !
 ! D111  D(38,35,36,31)        -57.344          estimate D2E/DX2                !
 ! D112  D(38,35,36,39)         65.933          estimate D2E/DX2                !
 ! D113  D(38,35,36,40)       -176.5615         estimate D2E/DX2                !
 ! D114  D(34,35,37,32)        138.363          estimate D2E/DX2                !
 ! D115  D(34,35,37,33)        -42.3969         estimate D2E/DX2                !
 ! D116  D(36,35,37,32)       -101.3806         estimate D2E/DX2                !
 ! D117  D(36,35,37,33)         77.8595         estimate D2E/DX2                !
 ! D118  D(38,35,37,32)         16.4754         estimate D2E/DX2                !
 ! D119  D(38,35,37,33)       -164.2845         estimate D2E/DX2                !
 --------------------------------------------------------------------------------
 Trust Radius=3.00D-01 FncErr=1.00D-07 GrdErr=1.00D-06 EigMax=2.50D+02 EigMin=1.00D-04
 Number of steps in this run=    255 maximum allowed number of steps=    264.
 GradGradGradGradGradGradGradGradGradGradGradGradGradGradGradGradGradGrad

                          Input orientation:                          
 ---------------------------------------------------------------------
 Center     Atomic      Atomic             Coordinates (Angstroms)
 Number     Number       Type             X           Y           Z
 ---------------------------------------------------------------------
      1          8           0        4.431069    0.477950    1.688276
      2          1           0        4.470026    1.327140    2.138559
      3          6           0        1.443759    1.242828   -0.531190
      4          7           0        1.182867   -0.189486   -0.871628
      5          8           0        0.153151   -0.417415   -1.583483
      6          6           0        2.826607    1.386932    0.111553
      7          6           0        3.124401    0.320968    1.154661
      8          6           0        3.090873   -1.033102    0.474617
      9          6           0        1.729325   -1.372521   -0.137575
     10          6           0        1.896531   -2.504453   -1.152007
     11          6           0        1.409285    2.040658   -1.836042
     12          6           0        0.719479   -1.798773    0.937544
     13          6           0        0.330842    1.739626    0.400201
     14          1           0        2.888518    2.386466    0.552153
     15          1           0        3.602305    1.318269   -0.658369
     16          1           0        3.352953   -1.818968    1.187154
     17          1           0        3.857402   -1.027952   -0.307618
     18          1           0        2.356214   -3.360762   -0.654336
     19          1           0        2.543137   -2.187682   -1.972708
     20          1           0        0.931237   -2.805824   -1.556273
     21          1           0        2.120192    1.627725   -2.554182
     22          1           0        1.685768    3.075495   -1.624274
     23          1           0        0.413736    2.031883   -2.279274
     24          1           0        2.387373    0.360357    1.966464
     25          1           0       -0.243922   -2.028750    0.477760
     26          1           0        1.086780   -2.699386    1.434049
     27          1           0        0.573216   -1.028833    1.697652
     28          1           0        0.472249    2.805070    0.594165
     29          1           0       -0.643727    1.606512   -0.070804
     30          1           0        0.326480    1.217699    1.359102
     31          8           0       -1.582738   -0.810607   -4.404972
     32          8           0       -1.584513   -3.976943   -4.066563
     33          8           0       -0.502849   -3.475242   -2.177072
     34          7           0       -2.970130   -2.236403   -1.296775
     35          6           0       -2.521487   -2.268763   -2.680831
     36          6           0       -1.966863   -0.886683   -3.049074
     37          6           0       -1.429007   -3.296748   -2.926502
     38          1           0       -3.367340   -2.490714   -3.333280
     39          1           0       -2.734651   -0.148395   -2.802802
     40          1           0       -1.081390   -0.690682   -2.436936
     41          1           0       -2.156490   -2.177723   -0.689201
     42          1           0       -3.437204   -3.106404   -1.061722
     43          1           0       -2.402756   -0.655452   -4.897274
     44          1           0       -0.831537   -4.579148   -4.163856
 ---------------------------------------------------------------------
                    Distance matrix (angstroms):
                    1          2          3          4          5
     1  O    0.000000
     2  H    0.961975   0.000000
     3  C    3.799354   4.036454   0.000000
     4  N    4.189200   4.708163   1.495154   0.000000
     5  O    5.459548   5.960913   2.351467   1.272401   0.000000
     6  C    2.426232   2.610202   1.531716   2.480649   3.643650
     7  C    1.420130   1.947086   2.552739   2.852361   4.107428
     8  C    2.356347   3.200236   2.984039   2.482851   3.639376
     9  C    3.749319   4.469944   2.660175   1.495668   2.342478
    10  C    4.835889   5.668492   3.825249   2.438647   2.753411
    11  C    4.898372   5.067020   1.529823   2.440267   2.771963
    12  C    4.418480   5.027959   3.454432   2.465286   2.929924
    13  C    4.479154   4.508312   1.533911   2.462716   2.935882
    14  H    2.704195   2.477907   2.137491   3.401753   4.461493
    15  H    2.626733   2.928451   2.163605   2.858756   3.970529
    16  H    2.586366   3.471458   3.996539   3.406328   4.458645
    17  H    2.565234   3.450442   3.321460   2.859068   3.965106
    18  H    4.952632   5.851913   4.694761   3.388355   3.792109
    19  H    4.906392   5.741898   3.880078   2.656219   2.999562
    20  H    5.793021   6.576945   4.207738   2.716115   2.512102
    21  H    4.965943   5.256795   2.167534   2.647985   2.999017
    22  H    5.025625   4.996774   2.147573   3.388139   3.814577
    23  H    5.856204   6.038824   2.177005   2.739984   2.559510
    24  H    2.065892   2.302548   2.812017   3.131761   4.266005
    25  H    5.440996   6.020096   3.816997   2.690626   2.646279
    26  H    4.619996   5.306185   4.419349   3.409542   3.896736
    27  H    4.141680   4.574947   3.299398   2.770808   3.363946
    28  H    4.720680   4.533393   2.156584   3.408943   3.902356
    29  H    5.488312   5.577616   2.168368   2.683910   2.649433
    30  H    4.183687   4.217642   2.195939   2.773035   3.370823
    31  O    8.657594   9.166445   5.327520   4.529778   3.335973
    32  O    9.442006  10.163379   6.993947   5.675459   4.674976
    33  O    7.410276   8.149664   5.362686   3.916889   3.183236
    34  N    8.429471   8.936234   5.672176   4.649516   3.625714
    35  C    8.658611   9.221620   5.716240   4.617233   3.432979
    36  C    8.077020   8.558393   4.744144   3.892063   2.619662
    37  C    8.359726   9.046202   5.882011   4.549667   3.549293
    38  H    9.738797  10.292781   6.703560   5.662134   4.444571
    39  H    8.479955   8.860114   4.955283   4.367845   3.146190
    40  H    6.983573   7.471612   3.707656   2.797901   1.525500
    41  H    7.490055   8.011929   4.968594   3.890716   3.038563
    42  H    9.073026   9.613657   6.559046   5.467139   4.515922
    43  H    9.557993  10.033382   6.120607   5.411067   4.191722
    44  H    9.355036  10.134655   7.229705   5.845145   4.994792
                    6          7          8          9         10
     6  C    0.000000
     7  C    1.520866   0.000000
     8  C    2.461344   1.515615   0.000000
     9  C    2.980046   2.546373   1.530947   0.000000
    10  C    4.195772   3.848556   2.497445   1.529150   0.000000
    11  C    2.495854   3.852695   4.197009   3.825834   4.622050
    12  C    3.907808   3.213112   2.534574   1.535370   2.499932
    13  C    2.537036   3.222696   3.912969   3.454044   4.782566
    14  H    1.094088   2.164472   3.426427   3.993675   5.273451
    15  H    1.095081   2.123695   2.659730   3.319583   4.215038
    16  H    3.422244   2.152352   1.092694   2.142519   2.839494
    17  H    2.658930   2.120173   1.095210   2.162488   2.595778
    18  H    4.832024   4.173454   2.689286   2.147821   1.091902
    19  H    4.147573   4.051127   2.760882   2.166677   1.091784
    20  H    4.894208   4.683584   3.454140   2.168872   1.089058
    21  H    2.768239   4.058518   4.146787   3.872240   4.369326
    22  H    2.676911   4.168880   4.822886   4.690098   5.603863
    23  H    3.457450   4.697536   4.913768   4.231739   4.903851
    24  H    2.165058   1.097172   2.159224   2.804082   4.262971
    25  H    4.607509   4.162327   3.480256   2.168635   2.732027
    26  H    4.634004   3.654107   2.777301   2.154864   2.716870
    27  H    3.664615   2.936894   2.799005   2.196080   3.471192
    28  H    2.790525   3.676796   4.647908   4.423568   5.767905
    29  H    3.482052   4.165714   4.605679   3.809261   4.951964
    30  H    2.799224   2.945214   3.672913   3.304127   4.756590
    31  O    6.683600   7.372052   6.760365   5.431039   5.055315
    32  O    8.104677   8.240576   7.151765   5.762073   4.772895
    33  O    6.321694   6.218408   5.090220   3.682877   2.783921
    34  N    6.979549   7.049326   6.428182   4.916799   4.876187
    35  C    7.054333   7.300257   6.556088   5.033964   4.680997
    36  C    6.175455   6.711988   6.165917   4.730187   4.598028
    37  C    7.019750   7.104737   6.092702   4.632043   3.851723
    38  H    8.078861   8.377939   7.637619   6.118732   5.697936
    39  H    6.463612   7.085923   6.742471   5.341255   5.451970
    40  H    5.107223   5.622427   5.099233   3.694873   3.716023
    41  H    6.178934   6.126262   5.495402   4.006519   4.092422
    42  H    7.797562   7.727477   7.019595   5.527515   5.368354
    43  H    7.523691   8.254016   7.692840   6.343738   5.994139
    44  H    8.200929   8.243009   7.033859   5.749035   4.562669
                   11         12         13         14         15
    11  C    0.000000
    12  C    4.786423   0.000000
    13  C    2.500888   3.600006   0.000000
    14  H    2.830404   4.729639   2.642574   0.000000
    15  H    2.591929   4.535810   3.464186   1.765191   0.000000
    16  H    5.273924   2.645354   4.734558   4.278388   3.648340
    17  H    4.212567   3.462825   4.538405   3.651875   2.385970
    18  H    5.609674   2.766368   5.588214   5.896575   4.842116
    19  H    4.379858   3.456377   5.093986   5.236128   3.891146
    20  H    4.878031   2.697798   4.984915   5.936016   4.994895
    21  H    1.091617   5.088717   3.455817   3.288667   2.426217
    22  H    1.091868   5.590627   2.778285   2.580349   2.773793
    23  H    1.089793   5.011519   2.696641   3.777202   3.647403
    24  H    4.270728   2.915886   2.929997   2.521218   3.046868
    25  H    4.964560   1.091985   3.812745   5.414042   5.223676
    26  H    5.767627   1.092031   4.620077   5.467165   5.181470
    27  H    4.754764   1.091771   3.067000   4.282179   4.498344
    28  H    2.714455   4.623246   1.092149   2.452621   3.684653
    29  H    2.742154   3.804085   1.090573   3.670580   4.296173
    30  H    3.472560   3.071036   1.091750   2.929372   3.848549
    31  O    4.866346   5.900776   5.766730   7.401790   6.741945
    32  O    7.081636   5.924010   7.503314   9.046188   8.158317
    33  O    5.847881   3.742388   5.876413   7.301347   6.491263
    34  N    6.145188   4.335541   5.439205   7.688511   7.499344
    35  C    5.893703   4.880306   5.804801   7.835272   7.379564
    36  C    4.630243   4.893002   4.906572   6.874378   6.449257
    37  C    6.142712   4.668059   6.287216   7.939835   7.194227
    38  H    6.752125   5.951538   6.746199   8.832849   8.380898
    39  H    4.785267   5.352097   4.818827   7.021486   6.848847
    40  H    3.744964   3.982225   3.993764   5.844970   5.397795
    41  H    5.641341   3.325823   4.766470   6.915554   6.736960
    42  H    7.111981   4.794265   6.310261   8.531763   8.324369
    43  H    5.583172   6.715701   6.424344   8.182121   7.610825
    44  H    7.366263   6.013353   7.880903   9.197789   8.168654
                   16         17         18         19         20
    16  H    0.000000
    17  H    1.764800   0.000000
    18  H    2.600327   2.795672   0.000000
    19  H    3.282755   2.417600   1.774588   0.000000
    20  H    3.790117   3.644504   1.775389   1.775877   0.000000
    21  H    5.234213   3.888132   5.343232   3.882567   4.697424
    22  H    5.885525   4.825749   6.543369   5.343924   5.929912
    23  H    5.956859   5.010873   5.957706   4.736355   4.918734
    24  H    2.507813   3.042998   4.551515   4.694022   4.955271
    25  H    3.672160   4.294098   3.133146   3.714532   2.474294
    26  H    2.443693   3.674703   2.531844   3.740162   2.996256
    27  H    2.934597   3.847985   3.761492   4.323779   3.724769
    28  H    5.480129   5.192738   6.567006   5.983727   6.026374
    29  H    5.412007   5.220790   5.832149   5.307471   4.914859
    30  H    4.290740   4.504255   5.397783   5.254631   5.005385
    31  O    7.526600   6.814006   6.007154   4.983482   4.291392
    32  O    7.525754   7.241592   5.249029   4.962175   3.741934
    33  O    5.378519   5.338153   3.241307   3.313247   1.700034
    34  N    6.806286   7.003855   5.481501   5.554761   3.951233
    35  C    7.047883   6.918235   5.393617   5.114531   3.670744
    36  C    6.864053   6.438758   5.526738   4.815731   3.782928
    37  C    6.478668   6.320768   4.415284   4.232928   2.772956
    38  H    8.126986   7.968136   6.379090   6.072620   4.662061
    39  H    7.467897   7.103149   6.391566   5.718636   4.696222
    40  H    5.836991   5.388823   4.703628   3.948888   3.049600
    41  H    5.831241   6.134694   4.665329   4.871753   3.268085
    42  H    7.267818   7.622330   5.813291   6.118695   4.406610
    43  H    8.455898   7.771311   6.925967   5.946652   5.186704
    44  H    7.332247   7.033328   4.895196   4.680669   3.612691
                   21         22         23         24         25
    21  H    0.000000
    22  H    1.774681   0.000000
    23  H    1.775080   1.770937   0.000000
    24  H    4.702536   4.556053   4.971472   0.000000
    25  H    5.305800   5.847698   4.952019   3.853282   0.000000
    26  H    5.974765   6.562117   6.051997   3.367051   1.770596
    27  H    5.246764   5.396154   5.020892   2.300712   1.776425
    28  H    3.743521   2.543075   2.976221   3.395221   4.887972
    29  H    3.715759   3.161918   2.485258   3.858877   3.698094
    30  H    4.324271   3.768236   3.729382   2.313267   3.411972
    31  O    4.804433   5.789405   4.072377   7.597904   5.207435
    32  O    6.886540   8.148398   6.579771   8.425287   5.122842
    33  O    5.750029   6.928765   5.583816   6.343035   3.034389
    34  N    6.513366   7.071131   5.534809   6.789310   3.259495
    35  C    6.061669   6.883196   5.222292   7.253035   3.901487
    36  C    4.824022   5.574103   3.844200   6.757966   4.087958
    37  C    6.081601   7.211317   5.675290   7.202797   3.821158
    38  H    6.905182   7.709558   5.988434   8.326621   4.949058
    39  H    5.175511   5.596651   3.865234   7.017112   4.527864
    40  H    3.954604   4.743593   3.110084   5.703239   3.314700
    41  H    6.020764   6.575226   5.182198   5.843038   2.245419
    42  H    7.451448   8.048428   6.535608   7.423883   3.705185
    43  H    5.582118   6.430282   4.691303   8.431376   5.952940
    44  H    7.058967   8.448660   6.986278   8.505346   5.328641
                   26         27         28         29         30
    26  H    0.000000
    27  H    1.767479   0.000000
    28  H    5.601972   3.990826   0.000000
    29  H    4.878524   3.399034   1.767520   0.000000
    30  H    3.990893   2.285257   1.768085   1.771188   0.000000
    31  O    6.692382   6.475939   6.502882   5.050666   6.401851
    32  O    6.246974   6.824465   8.482237   6.930089   7.750744
    33  O    4.021078   4.707050   6.933462   5.502766   5.934308
    34  N    4.912258   4.793759   6.390780   4.656517   5.463711
    35  C    5.489741   5.503246   6.740314   5.035472   6.048751
    36  C    5.719180   5.385501   5.731623   4.103267   5.396282
    37  C    5.069559   5.525861   7.296715   5.728318   6.467485
    38  H    6.527645   6.555559   7.629718   5.903311   7.029586
    39  H    6.249943   5.654312   5.526893   3.862056   5.343985
    40  H    4.870357   4.466194   4.880743   3.326745   4.475927
    41  H    3.911409   3.803723   5.778020   4.122050   4.678629
    42  H    5.182757   5.292818   7.278139   5.567496   6.222827
    43  H    7.512668   7.244920   7.099068   5.612974   7.078112
    44  H    6.208863   6.995380   8.880613   7.419618   8.089963
                   31         32         33         34         35
    31  O    0.000000
    32  O    3.184369   0.000000
    33  O    3.637304   2.234251   0.000000
    34  N    3.690344   3.552624   2.897779   0.000000
    35  C    2.445431   2.390827   2.405049   1.455313   0.000000
    36  C    1.411311   3.275848   3.099091   2.428752   1.534065
    37  C    2.896619   1.336632   1.204688   2.481008   1.520072
    38  H    2.675086   2.434143   3.242132   2.090407   1.091064
    39  H    2.081437   4.192575   4.054675   2.585216   2.134543
    40  H    2.034428   3.702475   2.855873   2.693799   2.150279
    41  H    4.000644   3.869228   2.575237   1.017153   2.026844
    42  H    4.459490   3.635845   3.160773   1.015043   2.040023
    43  H    0.968950   3.520213   4.354349   3.973022   2.743991
    44  H    3.850238   0.969066   2.296509   4.275767   3.223844
                   36         37         38         39         40
    36  C    0.000000
    37  C    2.472393   0.000000
    38  H    2.148260   2.138292   0.000000
    39  H    1.093260   3.410591   2.483578   0.000000
    40  H    1.094162   2.674339   3.044521   1.777977   0.000000
    41  H    2.696617   2.605180   2.924940   2.986595   2.534108
    42  H    3.322444   2.747088   2.354556   3.503535   3.643732
    43  H    1.912933   3.436360   2.597052   2.180384   2.792939
    44  H    4.020696   1.879511   3.388467   5.010577   4.262023
                   41         42         43         44
    41  H    0.000000
    42  H    1.625254   0.000000
    43  H    4.481722   4.667837   0.000000
    44  H    4.426688   4.310651   4.289757   0.000000
 Stoichiometry    C12H25N2O5(2)
 Framework group  C1[X(C12H25N2O5)]
 Deg. of freedom   126
 Full point group                 C1      NOp   1
 Largest Abelian subgroup         C1      NOp   1
 Largest concise Abelian subgroup C1      NOp   1
                         Standard orientation:                         
 ---------------------------------------------------------------------
 Center     Atomic      Atomic             Coordinates (Angstroms)
 Number     Number       Type             X           Y           Z
 ---------------------------------------------------------------------
      1          8           0        4.928935   -1.037875   -0.270205
      2          1           0        5.599310   -0.447251    0.086387
      3          6           0        1.993601    1.362961   -0.035921
      4          7           0        0.958348    0.295362   -0.190738
      5          8           0       -0.253119    0.671038   -0.089649
      6          6           0        3.372647    0.817492   -0.419133
      7          6           0        3.656749   -0.564916    0.147672
      8          6           0        2.628509   -1.528652   -0.410025
      9          6           0        1.190075   -1.172933   -0.025100
     10          6           0        0.220288   -1.898398   -0.958649
     11          6           0        1.622967    2.505604   -0.983209
     12          6           0        0.883748   -1.562435    1.428107
     13          6           0        1.966639    1.870800    1.411233
     14          1           0        4.123615    1.536484   -0.078359
     15          1           0        3.454258    0.748322   -1.508975
     16          1           0        2.836338   -2.543623   -0.062718
     17          1           0        2.731367   -1.525487   -1.500390
     18          1           0        0.413931   -2.971680   -0.905579
     19          1           0        0.364015   -1.567066   -1.988968
     20          1           0       -0.811420   -1.709601   -0.665421
     21          1           0        1.527855    2.136918   -2.006269
     22          1           0        2.413068    3.258633   -0.953823
     23          1           0        0.685119    2.975886   -0.688377
     24          1           0        3.611352   -0.548241    1.243778
     25          1           0       -0.143960   -1.293046    1.680450
     26          1           0        0.992110   -2.643564    1.537427
     27          1           0        1.559445   -1.080957    2.137739
     28          1           0        2.667608    2.701927    1.514480
     29          1           0        0.970128    2.233213    1.666132
     30          1           0        2.248417    1.097951    2.129024
     31          8           0       -3.192189    1.825635   -1.165513
     32          8           0       -4.481804   -1.083056   -1.036630
     33          8           0       -2.458544   -1.618480   -0.254573
     34          7           0       -3.106398    0.015487    2.049240
     35          6           0       -3.572561    0.288364    0.697883
     36          6           0       -2.747328    1.444492    0.118476
     37          6           0       -3.429660   -0.905967   -0.231511
     38          1           0       -4.621153    0.588366    0.727450
     39          1           0       -2.799862    2.273824    0.828875
     40          1           0       -1.705564    1.121441    0.031548
     41          1           0       -2.180871   -0.403403    1.998942
     42          1           0       -3.705802   -0.673845    2.491789
     43          1           0       -3.959086    2.398055   -1.013634
     44          1           0       -4.294140   -1.835762   -1.617410
 ---------------------------------------------------------------------
 Rotational constants (GHZ):           0.6571012           0.2045409           0.1823323
 Standard basis: 6-311G(d,p) (5D, 7F)
 There are   511 symmetry adapted cartesian basis functions of A   symmetry.
 There are   492 symmetry adapted basis functions of A   symmetry.
   492 basis functions,   808 primitive gaussians,   511 cartesian basis functions
    76 alpha electrons       75 beta electrons
       nuclear repulsion energy      1677.3768229704 Hartrees.
 NAtoms=   44 NActive=   44 NUniq=   44 SFac= 1.00D+00 NAtFMM=   60 NAOKFM=F Big=F
 Integral buffers will be    131072 words long.
 Raffenetti 2 integral format.
 Two-electron integral symmetry is turned on.
 ------------------------------------------------------------------------------
 Polarizable Continuum Model (PCM)
 =================================
 Model                : PCM.
 Atomic radii         : UFF (Universal Force Field).
 Polarization charges : Total charges.
 Charge compensation  : None.
 Solution method      : On-the-fly selection.
 Cavity type          : Scaled VdW (van der Waals Surface) (Alpha=1.100).
 Cavity algorithm     : GePol (No added spheres)
                        Default sphere list used, NSphG=   44.
                        Lebedev-Laikov grids with approx.  5.0 points / Ang**2.
                        Smoothing algorithm: York/Karplus (Gamma=1.0000).
                        Polarization charges: spherical gaussians, with
                                              point-specific exponents (IZeta= 3).
                        Self-potential: point-specific (ISelfS= 7).
                        Self-field    : sphere-specific E.n sum rule (ISelfD= 2).
 1st derivatives      : Analytical E(r).r(x)/FMM algorithm (CHGder, D1EAlg=3).
                        Cavity 1st derivative terms included.
 Solvent              : Water, Eps=  78.355300 Eps(inf)=   1.777849
 ------------------------------------------------------------------------------
 One-electron integrals computed using PRISM.
 NBasis=   492 RedAO= T EigKep=  9.04D-04  NBF=   492
 NBsUse=   492 1.00D-06 EigRej= -1.00D+00 NBFU=   492
 ExpMin= 1.03D-01 ExpMax= 8.59D+03 ExpMxC= 1.30D+03 IAcc=3 IRadAn=         5 AccDes= 0.00D+00
 Harris functional with IExCor= 1009 and IRadAn=       5 diagonalized for initial guess.
 HarFok:  IExCor= 1009 AccDes= 0.00D+00 IRadAn=         5 IDoV= 1 UseB2=F ITyADJ=14
 ICtDFT=  3500011 ScaDFX=  1.000000  1.000000  1.000000  1.000000
 FoFCou: FMM=F IPFlag=           0 FMFlag=      100000 FMFlg1=           0
         NFxFlg=           0 DoJE=T BraDBF=F KetDBF=T FulRan=T
         wScrn=  0.000000 ICntrl=       500 IOpCl=  0 I1Cent=   200000004 NGrid=           0
         NMat0=    1 NMatS0=      1 NMatT0=    0 NMatD0=    1 NMtDS0=    0 NMtDT0=    0
 Petite list used in FoFCou.
 Initial guess <Sx>= 0.0000 <Sy>= 0.0000 <Sz>= 0.5000 <S**2>= 0.7500 S= 0.5000
 Requested convergence on RMS density matrix=1.00D-08 within 128 cycles.
 Requested convergence on MAX density matrix=1.00D-06.
 Requested convergence on             energy=1.00D-06.
 No special actions if energy rises.
 Inv3:  Mode=1 IEnd=    22671003.
 Iteration    1 A*A^-1 deviation from unit magnitude is 6.99D-15 for   2739.
 Iteration    1 A*A^-1 deviation from orthogonality  is 3.68D-15 for   1515   1060.
 Iteration    1 A^-1*A deviation from unit magnitude is 6.99D-15 for   2739.
 Iteration    1 A^-1*A deviation from orthogonality  is 2.52D-15 for   2301     21.
 Error on total polarization charges =  0.01137
 SCF Done:  E(UM062X) =  -957.754907475     A.U. after   15 cycles
            NFock= 15  Conv=0.46D-08     -V/T= 2.0032
 <Sx>= 0.0000 <Sy>= 0.0000 <Sz>= 0.5000 <S**2>= 0.7547 S= 0.5024
 <L.S>= 0.000000000000E+00
 Annihilation of the first spin contaminant:
 S**2 before annihilation     0.7547,   after     0.7500

 **********************************************************************

            Population analysis using the SCF density.

 **********************************************************************

 Orbital symmetries:
 Alpha Orbitals:
       Occupied  (A) (A) (A) (A) (A) (A) (A) (A) (A) (A) (A) (A)
                 (A) (A) (A) (A) (A) (A) (A) (A) (A) (A) (A) (A)
                 (A) (A) (A) (A) (A) (A) (A) (A) (A) (A) (A) (A)
                 (A) (A) (A) (A) (A) (A) (A) (A) (A) (A) (A) (A)
                 (A) (A) (A) (A) (A) (A) (A) (A) (A) (A) (A) (A)
                 (A) (A) (A) (A) (A) (A) (A) (A) (A) (A) (A) (A)
                 (A) (A) (A) (A)
       Virtual   (A) (A) (A) (A) (A) (A) (A) (A) (A) (A) (A) (A)
                 (A) (A) (A) (A) (A) (A) (A) (A) (A) (A) (A) (A)
                 (A) (A) (A) (A) (A) (A) (A) (A) (A) (A) (A) (A)
                 (A) (A) (A) (A) (A) (A) (A) (A) (A) (A) (A) (A)
                 (A) (A) (A) (A) (A) (A) (A) (A) (A) (A) (A) (A)
                 (A) (A) (A) (A) (A) (A) (A) (A) (A) (A) (A) (A)
                 (A) (A) (A) (A) (A) (A) (A) (A) (A) (A) (A) (A)
                 (A) (A) (A) (A) (A) (A) (A) (A) (A) (A) (A) (A)
                 (A) (A) (A) (A) (A) (A) (A) (A) (A) (A) (A) (A)
                 (A) (A) (A) (A) (A) (A) (A) (A) (A) (A) (A) (A)
                 (A) (A) (A) (A) (A) (A) (A) (A) (A) (A) (A) (A)
                 (A) (A) (A) (A) (A) (A) (A) (A) (A) (A) (A) (A)
                 (A) (A) (A) (A) (A) (A) (A) (A) (A) (A) (A) (A)
                 (A) (A) (A) (A) (A) (A) (A) (A) (A) (A) (A) (A)
                 (A) (A) (A) (A) (A) (A) (A) (A) (A) (A) (A) (A)
                 (A) (A) (A) (A) (A) (A) (A) (A) (A) (A) (A) (A)
                 (A) (A) (A) (A) (A) (A) (A) (A) (A) (A) (A) (A)
                 (A) (A) (A) (A) (A) (A) (A) (A) (A) (A) (A) (A)
                 (A) (A) (A) (A) (A) (A) (A) (A) (A) (A) (A) (A)
                 (A) (A) (A) (A) (A) (A) (A) (A) (A) (A) (A) (A)
                 (A) (A) (A) (A) (A) (A) (A) (A) (A) (A) (A) (A)
                 (A) (A) (A) (A) (A) (A) (A) (A) (A) (A) (A) (A)
                 (A) (A) (A) (A) (A) (A) (A) (A) (A) (A) (A) (A)
                 (A) (A) (A) (A) (A) (A) (A) (A) (A) (A) (A) (A)
                 (A) (A) (A) (A) (A) (A) (A) (A) (A) (A) (A) (A)
                 (A) (A) (A) (A) (A) (A) (A) (A) (A) (A) (A) (A)
                 (A) (A) (A) (A) (A) (A) (A) (A) (A) (A) (A) (A)
                 (A) (A) (A) (A) (A) (A) (A) (A) (A) (A) (A) (A)
                 (A) (A) (A) (A) (A) (A) (A) (A) (A) (A) (A) (A)
                 (A) (A) (A) (A) (A) (A) (A) (A) (A) (A) (A) (A)
                 (A) (A) (A) (A) (A) (A) (A) (A) (A) (A) (A) (A)
                 (A) (A) (A) (A) (A) (A) (A) (A) (A) (A) (A) (A)
                 (A) (A) (A) (A) (A) (A) (A) (A) (A) (A) (A) (A)
                 (A) (A) (A) (A) (A) (A) (A) (A) (A) (A) (A) (A)
                 (A) (A) (A) (A) (A) (A) (A) (A)
 Beta  Orbitals:
       Occupied  (A) (A) (A) (A) (A) (A) (A) (A) (A) (A) (A) (A)
                 (A) (A) (A) (A) (A) (A) (A) (A) (A) (A) (A) (A)
                 (A) (A) (A) (A) (A) (A) (A) (A) (A) (A) (A) (A)
                 (A) (A) (A) (A) (A) (A) (A) (A) (A) (A) (A) (A)
                 (A) (A) (A) (A) (A) (A) (A) (A) (A) (A) (A) (A)
                 (A) (A) (A) (A) (A) (A) (A) (A) (A) (A) (A) (A)
                 (A) (A) (A)
       Virtual   (A) (A) (A) (A) (A) (A) (A) (A) (A) (A) (A) (A)
                 (A) (A) (A) (A) (A) (A) (A) (A) (A) (A) (A) (A)
                 (A) (A) (A) (A) (A) (A) (A) (A) (A) (A) (A) (A)
                 (A) (A) (A) (A) (A) (A) (A) (A) (A) (A) (A) (A)
                 (A) (A) (A) (A) (A) (A) (A) (A) (A) (A) (A) (A)
                 (A) (A) (A) (A) (A) (A) (A) (A) (A) (A) (A) (A)
                 (A) (A) (A) (A) (A) (A) (A) (A) (A) (A) (A) (A)
                 (A) (A) (A) (A) (A) (A) (A) (A) (A) (A) (A) (A)
                 (A) (A) (A) (A) (A) (A) (A) (A) (A) (A) (A) (A)
                 (A) (A) (A) (A) (A) (A) (A) (A) (A) (A) (A) (A)
                 (A) (A) (A) (A) (A) (A) (A) (A) (A) (A) (A) (A)
                 (A) (A) (A) (A) (A) (A) (A) (A) (A) (A) (A) (A)
                 (A) (A) (A) (A) (A) (A) (A) (A) (A) (A) (A) (A)
                 (A) (A) (A) (A) (A) (A) (A) (A) (A) (A) (A) (A)
                 (A) (A) (A) (A) (A) (A) (A) (A) (A) (A) (A) (A)
                 (A) (A) (A) (A) (A) (A) (A) (A) (A) (A) (A) (A)
                 (A) (A) (A) (A) (A) (A) (A) (A) (A) (A) (A) (A)
                 (A) (A) (A) (A) (A) (A) (A) (A) (A) (A) (A) (A)
                 (A) (A) (A) (A) (A) (A) (A) (A) (A) (A) (A) (A)
                 (A) (A) (A) (A) (A) (A) (A) (A) (A) (A) (A) (A)
                 (A) (A) (A) (A) (A) (A) (A) (A) (A) (A) (A) (A)
                 (A) (A) (A) (A) (A) (A) (A) (A) (A) (A) (A) (A)
                 (A) (A) (A) (A) (A) (A) (A) (A) (A) (A) (A) (A)
                 (A) (A) (A) (A) (A) (A) (A) (A) (A) (A) (A) (A)
                 (A) (A) (A) (A) (A) (A) (A) (A) (A) (A) (A) (A)
                 (A) (A) (A) (A) (A) (A) (A) (A) (A) (A) (A) (A)
                 (A) (A) (A) (A) (A) (A) (A) (A) (A) (A) (A) (A)
                 (A) (A) (A) (A) (A) (A) (A) (A) (A) (A) (A) (A)
                 (A) (A) (A) (A) (A) (A) (A) (A) (A) (A) (A) (A)
                 (A) (A) (A) (A) (A) (A) (A) (A) (A) (A) (A) (A)
                 (A) (A) (A) (A) (A) (A) (A) (A) (A) (A) (A) (A)
                 (A) (A) (A) (A) (A) (A) (A) (A) (A) (A) (A) (A)
                 (A) (A) (A) (A) (A) (A) (A) (A) (A) (A) (A) (A)
                 (A) (A) (A) (A) (A) (A) (A) (A) (A) (A) (A) (A)
                 (A) (A) (A) (A) (A) (A) (A) (A) (A)
 The electronic state is 2-A.
 Alpha  occ. eigenvalues --  -19.67050 -19.62493 -19.61786 -19.61773 -19.61265
 Alpha  occ. eigenvalues --  -14.84200 -14.72978 -10.67696 -10.59425 -10.59098
 Alpha  occ. eigenvalues --  -10.58858 -10.57337 -10.55822 -10.53846 -10.53548
 Alpha  occ. eigenvalues --  -10.53047 -10.52898 -10.52755 -10.50514  -1.24501
 Alpha  occ. eigenvalues --   -1.23625  -1.15016  -1.14917  -1.14166  -1.00177
 Alpha  occ. eigenvalues --   -0.98304  -0.92749  -0.86367  -0.83211  -0.82257
 Alpha  occ. eigenvalues --   -0.79079  -0.78226  -0.77772  -0.75099  -0.69301
 Alpha  occ. eigenvalues --   -0.68794  -0.67217  -0.62514  -0.61083  -0.60480
 Alpha  occ. eigenvalues --   -0.59385  -0.58414  -0.57996  -0.56665  -0.55736
 Alpha  occ. eigenvalues --   -0.55117  -0.53636  -0.52765  -0.51611  -0.50641
 Alpha  occ. eigenvalues --   -0.50116  -0.49925  -0.49117  -0.47435  -0.47400
 Alpha  occ. eigenvalues --   -0.46301  -0.45890  -0.45551  -0.44574  -0.44363
 Alpha  occ. eigenvalues --   -0.43511  -0.43331  -0.42327  -0.41502  -0.40893
 Alpha  occ. eigenvalues --   -0.40622  -0.39969  -0.39496  -0.38344  -0.36647
 Alpha  occ. eigenvalues --   -0.36257  -0.34812  -0.34622  -0.34069  -0.31767
 Alpha  occ. eigenvalues --   -0.27011
 Alpha virt. eigenvalues --    0.04223   0.06455   0.07675   0.08231   0.08519
 Alpha virt. eigenvalues --    0.09128   0.09804   0.09934   0.10718   0.11738
 Alpha virt. eigenvalues --    0.13101   0.13422   0.14314   0.15447   0.16386
 Alpha virt. eigenvalues --    0.16547   0.16614   0.17002   0.17776   0.18067
 Alpha virt. eigenvalues --    0.18915   0.19715   0.20297   0.20638   0.21637
 Alpha virt. eigenvalues --    0.22105   0.22850   0.23403   0.23648   0.25241
 Alpha virt. eigenvalues --    0.25651   0.26492   0.26887   0.27541   0.28942
 Alpha virt. eigenvalues --    0.29227   0.29664   0.29786   0.30278   0.31426
 Alpha virt. eigenvalues --    0.32726   0.33253   0.33771   0.35094   0.35660
 Alpha virt. eigenvalues --    0.36538   0.37087   0.38646   0.39984   0.41163
 Alpha virt. eigenvalues --    0.41297   0.42053   0.42961   0.43651   0.44594
 Alpha virt. eigenvalues --    0.45119   0.45240   0.46562   0.46665   0.47955
 Alpha virt. eigenvalues --    0.48660   0.48832   0.49843   0.50906   0.51113
 Alpha virt. eigenvalues --    0.52340   0.52846   0.53906   0.54416   0.54917
 Alpha virt. eigenvalues --    0.55422   0.57578   0.58658   0.59352   0.60183
 Alpha virt. eigenvalues --    0.60370   0.60987   0.61255   0.62236   0.62631
 Alpha virt. eigenvalues --    0.62812   0.63532   0.64201   0.64702   0.65173
 Alpha virt. eigenvalues --    0.65415   0.66006   0.66056   0.66421   0.66901
 Alpha virt. eigenvalues --    0.67533   0.67966   0.68604   0.68718   0.69528
 Alpha virt. eigenvalues --    0.70330   0.70479   0.71214   0.72105   0.72680
 Alpha virt. eigenvalues --    0.73336   0.74389   0.75059   0.75360   0.76059
 Alpha virt. eigenvalues --    0.77911   0.80637   0.81337   0.84408   0.85380
 Alpha virt. eigenvalues --    0.86378   0.87179   0.87897   0.88405   0.90365
 Alpha virt. eigenvalues --    0.91648   0.93259   0.93889   0.95634   0.96579
 Alpha virt. eigenvalues --    0.97552   0.97930   0.99445   1.00125   1.00683
 Alpha virt. eigenvalues --    1.03187   1.03475   1.04857   1.06752   1.07284
 Alpha virt. eigenvalues --    1.08944   1.09522   1.11819   1.12778   1.14226
 Alpha virt. eigenvalues --    1.16358   1.17600   1.18980   1.20374   1.22373
 Alpha virt. eigenvalues --    1.23962   1.24511   1.25518   1.26176   1.27822
 Alpha virt. eigenvalues --    1.31098   1.32542   1.33765   1.34093   1.35116
 Alpha virt. eigenvalues --    1.35674   1.36524   1.38547   1.39553   1.40958
 Alpha virt. eigenvalues --    1.43322   1.44366   1.45337   1.45744   1.46191
 Alpha virt. eigenvalues --    1.46684   1.47001   1.47982   1.48375   1.49283
 Alpha virt. eigenvalues --    1.49988   1.50693   1.51314   1.52060   1.52988
 Alpha virt. eigenvalues --    1.53618   1.53911   1.54857   1.55174   1.56294
 Alpha virt. eigenvalues --    1.56405   1.57072   1.58260   1.59260   1.59321
 Alpha virt. eigenvalues --    1.59928   1.60689   1.61586   1.63376   1.63901
 Alpha virt. eigenvalues --    1.64936   1.65650   1.65708   1.66553   1.67263
 Alpha virt. eigenvalues --    1.68118   1.70060   1.70719   1.71068   1.71637
 Alpha virt. eigenvalues --    1.71716   1.72541   1.73573   1.74504   1.74929
 Alpha virt. eigenvalues --    1.75799   1.76236   1.76585   1.78401   1.79248
 Alpha virt. eigenvalues --    1.79739   1.80650   1.80919   1.82201   1.83269
 Alpha virt. eigenvalues --    1.83535   1.84436   1.84634   1.86312   1.87580
 Alpha virt. eigenvalues --    1.87922   1.88102   1.89473   1.89844   1.90391
 Alpha virt. eigenvalues --    1.91480   1.92141   1.93988   1.94771   1.95568
 Alpha virt. eigenvalues --    1.97509   1.98444   1.99728   2.01039   2.02669
 Alpha virt. eigenvalues --    2.03970   2.04804   2.05678   2.08048   2.08767
 Alpha virt. eigenvalues --    2.09303   2.10105   2.10345   2.12292   2.13117
 Alpha virt. eigenvalues --    2.14633   2.15570   2.18155   2.18605   2.21055
 Alpha virt. eigenvalues --    2.21773   2.22814   2.23375   2.24140   2.25469
 Alpha virt. eigenvalues --    2.26483   2.27204   2.28232   2.30349   2.32343
 Alpha virt. eigenvalues --    2.32893   2.36216   2.38356   2.41397   2.42298
 Alpha virt. eigenvalues --    2.42991   2.44870   2.46097   2.47396   2.47726
 Alpha virt. eigenvalues --    2.48572   2.49306   2.50942   2.51345   2.52191
 Alpha virt. eigenvalues --    2.53359   2.53843   2.54439   2.55529   2.56155
 Alpha virt. eigenvalues --    2.56642   2.57501   2.57804   2.57877   2.58578
 Alpha virt. eigenvalues --    2.59205   2.60034   2.60386   2.61301   2.61689
 Alpha virt. eigenvalues --    2.63139   2.63513   2.64618   2.65561   2.68025
 Alpha virt. eigenvalues --    2.68856   2.69057   2.70746   2.70848   2.71742
 Alpha virt. eigenvalues --    2.74007   2.74269   2.75382   2.78504   2.79663
 Alpha virt. eigenvalues --    2.80585   2.81322   2.82609   2.86314   2.86958
 Alpha virt. eigenvalues --    2.88620   2.89692   2.89715   2.91804   2.92936
 Alpha virt. eigenvalues --    2.93729   2.94504   2.95921   2.96693   2.99325
 Alpha virt. eigenvalues --    3.00069   3.01575   3.03546   3.04582   3.05980
 Alpha virt. eigenvalues --    3.07340   3.08148   3.10287   3.11748   3.13289
 Alpha virt. eigenvalues --    3.17740   3.18629   3.20434   3.20966   3.22896
 Alpha virt. eigenvalues --    3.24008   3.24447   3.24898   3.26064   3.30341
 Alpha virt. eigenvalues --    3.31463   3.32556   3.33933   3.39578   3.40621
 Alpha virt. eigenvalues --    3.40759   3.42956   3.43734   3.51708   3.55448
 Alpha virt. eigenvalues --    3.60070   3.61944   3.66117   3.69027   3.78250
 Alpha virt. eigenvalues --    3.79997   3.80961   3.81487   3.82407   3.83144
 Alpha virt. eigenvalues --    3.84581   3.84693   3.85832   3.86379   3.86950
 Alpha virt. eigenvalues --    3.89237   3.89599   3.91129   3.93267   3.96160
 Alpha virt. eigenvalues --    3.96645   4.01962   4.03947   4.06563   4.08476
 Alpha virt. eigenvalues --    4.18891   4.20502   4.24168   4.30265   4.34108
 Alpha virt. eigenvalues --    4.37638   4.39164   4.39392   4.81139   4.85609
 Alpha virt. eigenvalues --    4.90929   4.92294   4.94260   5.03082   5.04123
 Alpha virt. eigenvalues --    5.07257   5.10626   5.17951   5.22850   5.37926
 Alpha virt. eigenvalues --    5.39919   5.43205   5.69554   5.72899   5.75054
 Alpha virt. eigenvalues --    5.90584   6.04484  23.78481  23.83899  23.87332
 Alpha virt. eigenvalues --   23.89348  23.89541  23.95062  23.96388  23.98372
 Alpha virt. eigenvalues --   24.01335  24.03099  24.05580  24.08626  35.54986
 Alpha virt. eigenvalues --   35.67993  49.96381  50.01513  50.02796  50.05274
 Alpha virt. eigenvalues --   50.13293
  Beta  occ. eigenvalues --  -19.67050 -19.61787 -19.61773 -19.61521 -19.61263
  Beta  occ. eigenvalues --  -14.83338 -14.72977 -10.67696 -10.59458 -10.59099
  Beta  occ. eigenvalues --  -10.58891 -10.57337 -10.55828 -10.53845 -10.53547
  Beta  occ. eigenvalues --  -10.53011 -10.52862 -10.52738 -10.50498  -1.24500
  Beta  occ. eigenvalues --   -1.20705  -1.15017  -1.14913  -1.14162  -1.00172
  Beta  occ. eigenvalues --   -0.97028  -0.92547  -0.85620  -0.83189  -0.80831
  Beta  occ. eigenvalues --   -0.78858  -0.78163  -0.77664  -0.75046  -0.69082
  Beta  occ. eigenvalues --   -0.68190  -0.67174  -0.61908  -0.60994  -0.60305
  Beta  occ. eigenvalues --   -0.58989  -0.58175  -0.57712  -0.55828  -0.55152
  Beta  occ. eigenvalues --   -0.53628  -0.52915  -0.51870  -0.51469  -0.50517
  Beta  occ. eigenvalues --   -0.50011  -0.49861  -0.48621  -0.47158  -0.46901
  Beta  occ. eigenvalues --   -0.46084  -0.45728  -0.45153  -0.44434  -0.43579
  Beta  occ. eigenvalues --   -0.43230  -0.42460  -0.42180  -0.41346  -0.40759
  Beta  occ. eigenvalues --   -0.40023  -0.39466  -0.38719  -0.37030  -0.36584
  Beta  occ. eigenvalues --   -0.36044  -0.34726  -0.34483  -0.32857  -0.31695
  Beta virt. eigenvalues --   -0.02085   0.04238   0.06533   0.07707   0.08243
  Beta virt. eigenvalues --    0.08538   0.09134   0.09850   0.09958   0.10817
  Beta virt. eigenvalues --    0.11753   0.13153   0.13434   0.14329   0.15488
  Beta virt. eigenvalues --    0.16406   0.16555   0.16679   0.17140   0.17844
  Beta virt. eigenvalues --    0.18170   0.18958   0.19930   0.20373   0.20880
  Beta virt. eigenvalues --    0.21729   0.22269   0.22945   0.23543   0.24214
  Beta virt. eigenvalues --    0.25381   0.25724   0.26711   0.26945   0.27631
  Beta virt. eigenvalues --    0.29082   0.29289   0.29763   0.30014   0.30437
  Beta virt. eigenvalues --    0.31562   0.32767   0.33288   0.34013   0.35173
  Beta virt. eigenvalues --    0.36145   0.36755   0.37106   0.38845   0.40036
  Beta virt. eigenvalues --    0.41203   0.41523   0.42115   0.43341   0.43733
  Beta virt. eigenvalues --    0.44780   0.45151   0.45362   0.46615   0.46757
  Beta virt. eigenvalues --    0.47995   0.48700   0.48956   0.50097   0.50975
  Beta virt. eigenvalues --    0.51184   0.52496   0.53020   0.54035   0.54572
  Beta virt. eigenvalues --    0.54992   0.55497   0.57821   0.58773   0.59425
  Beta virt. eigenvalues --    0.60276   0.60460   0.61054   0.61375   0.62306
  Beta virt. eigenvalues --    0.62744   0.62853   0.63575   0.64269   0.64832
  Beta virt. eigenvalues --    0.65297   0.65516   0.66045   0.66128   0.66468
  Beta virt. eigenvalues --    0.66938   0.67602   0.67988   0.68684   0.68839
  Beta virt. eigenvalues --    0.69579   0.70409   0.70560   0.71268   0.72192
  Beta virt. eigenvalues --    0.72778   0.73429   0.74520   0.75314   0.75444
  Beta virt. eigenvalues --    0.76147   0.77987   0.80723   0.81465   0.84810
  Beta virt. eigenvalues --    0.85672   0.87069   0.87358   0.87945   0.88597
  Beta virt. eigenvalues --    0.90510   0.91848   0.93725   0.94502   0.95707
  Beta virt. eigenvalues --    0.96743   0.97587   0.98042   0.99573   1.00227
  Beta virt. eigenvalues --    1.00833   1.03484   1.03581   1.05092   1.06920
  Beta virt. eigenvalues --    1.07424   1.09112   1.10163   1.11948   1.12981
  Beta virt. eigenvalues --    1.14706   1.16545   1.17789   1.19145   1.20431
  Beta virt. eigenvalues --    1.22764   1.24050   1.24538   1.25578   1.26320
  Beta virt. eigenvalues --    1.27874   1.31205   1.32596   1.33830   1.34371
  Beta virt. eigenvalues --    1.35347   1.35823   1.36760   1.38578   1.39669
  Beta virt. eigenvalues --    1.41012   1.43444   1.44385   1.45482   1.45811
  Beta virt. eigenvalues --    1.46275   1.46712   1.47035   1.48008   1.48519
  Beta virt. eigenvalues --    1.49334   1.50054   1.50717   1.51368   1.52112
  Beta virt. eigenvalues --    1.53057   1.53664   1.53945   1.54958   1.55288
  Beta virt. eigenvalues --    1.56378   1.56470   1.57097   1.58287   1.59319
  Beta virt. eigenvalues --    1.59383   1.59992   1.60767   1.61678   1.63440
  Beta virt. eigenvalues --    1.63959   1.64979   1.65718   1.65768   1.66600
  Beta virt. eigenvalues --    1.67311   1.68293   1.70164   1.70843   1.71118
  Beta virt. eigenvalues --    1.71697   1.71742   1.72626   1.73635   1.74541
  Beta virt. eigenvalues --    1.74989   1.75842   1.76266   1.76611   1.78456
  Beta virt. eigenvalues --    1.79455   1.79809   1.80690   1.80993   1.82359
  Beta virt. eigenvalues --    1.83404   1.83602   1.84456   1.84707   1.86363
  Beta virt. eigenvalues --    1.87844   1.88138   1.88429   1.89900   1.89984
  Beta virt. eigenvalues --    1.90537   1.91543   1.92235   1.94020   1.94842
  Beta virt. eigenvalues --    1.95584   1.97572   1.98473   1.99812   2.01096
  Beta virt. eigenvalues --    2.02693   2.04119   2.04919   2.05714   2.08207
  Beta virt. eigenvalues --    2.08978   2.09611   2.10225   2.10832   2.12422
  Beta virt. eigenvalues --    2.13175   2.14735   2.15609   2.18232   2.18662
  Beta virt. eigenvalues --    2.21099   2.21885   2.22964   2.23507   2.24367
  Beta virt. eigenvalues --    2.25632   2.26624   2.27303   2.28411   2.30592
  Beta virt. eigenvalues --    2.32629   2.33027   2.36619   2.38406   2.41491
  Beta virt. eigenvalues --    2.42438   2.43107   2.44923   2.46220   2.47614
  Beta virt. eigenvalues --    2.47770   2.48625   2.49374   2.51016   2.51404
  Beta virt. eigenvalues --    2.52200   2.53498   2.53891   2.54492   2.55587
  Beta virt. eigenvalues --    2.56266   2.56762   2.57595   2.57833   2.57944
  Beta virt. eigenvalues --    2.58634   2.59244   2.60149   2.60458   2.61381
  Beta virt. eigenvalues --    2.61728   2.63291   2.63642   2.64662   2.65630
  Beta virt. eigenvalues --    2.68123   2.68924   2.69094   2.70804   2.70884
  Beta virt. eigenvalues --    2.71784   2.74099   2.74376   2.75433   2.78668
  Beta virt. eigenvalues --    2.79805   2.80689   2.81402   2.82698   2.86470
  Beta virt. eigenvalues --    2.87169   2.88866   2.89794   2.90152   2.92204
  Beta virt. eigenvalues --    2.93327   2.93836   2.95786   2.96604   2.96872
  Beta virt. eigenvalues --    2.99462   3.00183   3.01893   3.03697   3.04966
  Beta virt. eigenvalues --    3.06075   3.07640   3.08567   3.10718   3.11769
  Beta virt. eigenvalues --    3.13310   3.17753   3.18776   3.20452   3.21033
  Beta virt. eigenvalues --    3.23303   3.24024   3.24693   3.25096   3.26126
  Beta virt. eigenvalues --    3.30354   3.31501   3.32597   3.35803   3.39622
  Beta virt. eigenvalues --    3.40683   3.40848   3.43025   3.43783   3.52295
  Beta virt. eigenvalues --    3.55607   3.60081   3.62082   3.66319   3.69234
  Beta virt. eigenvalues --    3.78289   3.80027   3.81139   3.81530   3.82460
  Beta virt. eigenvalues --    3.83194   3.84648   3.84749   3.85892   3.86401
  Beta virt. eigenvalues --    3.86997   3.89253   3.89623   3.91180   3.93507
  Beta virt. eigenvalues --    3.96188   3.96810   4.03937   4.04543   4.06980
  Beta virt. eigenvalues --    4.08574   4.18920   4.20586   4.24167   4.30306
  Beta virt. eigenvalues --    4.34121   4.37707   4.39371   4.39918   4.81162
  Beta virt. eigenvalues --    4.86512   4.90982   4.92728   4.94276   5.03085
  Beta virt. eigenvalues --    5.04171   5.10539   5.11604   5.18126   5.23789
  Beta virt. eigenvalues --    5.37938   5.39923   5.43224   5.69556   5.72902
  Beta virt. eigenvalues --    5.75056   5.90584   6.04691  23.78446  23.83898
  Beta virt. eigenvalues --   23.87287  23.89348  23.89531  23.95065  23.96387
  Beta virt. eigenvalues --   23.98384  24.01349  24.03111  24.05590  24.08629
  Beta virt. eigenvalues --   35.54384  35.67993  49.96379  50.01488  50.02114
  Beta virt. eigenvalues --   50.05176  50.13293
          Condensed to atoms (all electrons):
               1          2          3          4          5          6
     1  O    7.997133   0.320011   0.005839   0.000025   0.000000  -0.048627
     2  H    0.320011   0.436626  -0.000275   0.000025  -0.000001  -0.001799
     3  C    0.005839  -0.000275   5.583356   0.195530  -0.085133   0.183148
     4  N    0.000025   0.000025   0.195530   6.904593   0.162837  -0.038121
     5  O    0.000000  -0.000001  -0.085133   0.162837   8.371512   0.006525
     6  C   -0.048627  -0.001799   0.183148  -0.038121   0.006525   5.364344
     7  C    0.251241  -0.040354  -0.047335  -0.009438   0.000084   0.307682
     8  C   -0.055693   0.010173   0.006723  -0.032786   0.006326  -0.103888
     9  C    0.003802  -0.000754  -0.098552   0.187616  -0.084214   0.014212
    10  C   -0.000102   0.000029   0.006820  -0.072007  -0.000832  -0.002696
    11  C   -0.000141  -0.000001   0.322286  -0.073491   0.003593  -0.067413
    12  C   -0.000127   0.000009  -0.001569  -0.075356  -0.000649   0.001261
    13  C   -0.000051  -0.000006   0.305535  -0.076822  -0.003570  -0.087460
    14  H   -0.000444   0.004820  -0.028029   0.004874  -0.000147   0.403838
    15  H    0.007962  -0.001121  -0.033468  -0.001008  -0.000265   0.404908
    16  H    0.004696  -0.000242  -0.001374   0.004676  -0.000141   0.011216
    17  H    0.005995  -0.000570   0.003074  -0.000799  -0.000273  -0.012718
    18  H   -0.000017   0.000001  -0.000168   0.006492   0.000304  -0.000021
    19  H   -0.000028   0.000000  -0.000195   0.001015  -0.000922   0.000318
    20  H    0.000003  -0.000001   0.001122  -0.006617   0.014688  -0.000241
    21  H   -0.000029   0.000000  -0.035507   0.001253  -0.000565  -0.008047
    22  H   -0.000018   0.000002  -0.043168   0.006148   0.000374  -0.004248
    23  H    0.000005  -0.000001  -0.032739  -0.006711   0.010134   0.008613
    24  H   -0.030362  -0.005394   0.004933  -0.001624  -0.000085  -0.061097
    25  H    0.000002  -0.000002  -0.000076  -0.008227   0.005276  -0.000050
    26  H   -0.000036   0.000004  -0.000216   0.006403   0.000008  -0.000092
    27  H   -0.000137   0.000023   0.001088  -0.002120  -0.000090  -0.001329
    28  H   -0.000021   0.000009  -0.036822   0.006426  -0.000100  -0.005492
    29  H    0.000005  -0.000001  -0.035041  -0.007956   0.011480   0.008912
    30  H   -0.000144  -0.000021  -0.029496  -0.002115  -0.000460  -0.006508
    31  O    0.000000   0.000000   0.000001  -0.000057   0.000576   0.000000
    32  O    0.000000   0.000000   0.000000   0.000000   0.000000   0.000000
    33  O    0.000000   0.000000  -0.000014  -0.000506  -0.000685   0.000000
    34  N    0.000000   0.000000  -0.000002   0.000016  -0.001139   0.000000
    35  C    0.000000   0.000000   0.000014  -0.000212   0.004675   0.000000
    36  C    0.000000   0.000000  -0.000560   0.007332  -0.065488   0.000005
    37  C    0.000000   0.000000  -0.000004   0.000019  -0.000976   0.000000
    38  H    0.000000   0.000000   0.000000   0.000009  -0.000161   0.000000
    39  H    0.000000   0.000000   0.000044  -0.000109   0.000281  -0.000002
    40  H    0.000000   0.000000   0.000181  -0.009792   0.022096   0.000022
    41  H    0.000000   0.000000  -0.000019  -0.000028   0.002207  -0.000001
    42  H    0.000000   0.000000   0.000000  -0.000002  -0.000034   0.000000
    43  H    0.000000   0.000000  -0.000002   0.000022  -0.000304   0.000000
    44  H    0.000000   0.000000   0.000000   0.000003   0.000003   0.000000
               7          8          9         10         11         12
     1  O    0.251241  -0.055693   0.003802  -0.000102  -0.000141  -0.000127
     2  H   -0.040354   0.010173  -0.000754   0.000029  -0.000001   0.000009
     3  C   -0.047335   0.006723  -0.098552   0.006820   0.322286  -0.001569
     4  N   -0.009438  -0.032786   0.187616  -0.072007  -0.073491  -0.075356
     5  O    0.000084   0.006326  -0.084214  -0.000832   0.003593  -0.000649
     6  C    0.307682  -0.103888   0.014212  -0.002696  -0.067413   0.001261
     7  C    5.002884   0.286776  -0.047562   0.009330   0.008652  -0.008074
     8  C    0.286776   5.370718   0.195184  -0.072747  -0.003121  -0.084814
     9  C   -0.047562   0.195184   5.564123   0.325829   0.008168   0.298622
    10  C    0.009330  -0.072747   0.325829   5.126826  -0.000093  -0.088105
    11  C    0.008652  -0.003121   0.008168  -0.000093   5.020450  -0.000742
    12  C   -0.008074  -0.084814   0.298622  -0.088105  -0.000742   5.073930
    13  C   -0.008102   0.002060  -0.002349  -0.000676  -0.090916   0.001288
    14  H   -0.032655   0.010023  -0.001078   0.000075  -0.005976   0.000027
    15  H   -0.045393  -0.012412   0.002733  -0.000532  -0.007911   0.000248
    16  H   -0.032376   0.401912  -0.028255  -0.005321   0.000106  -0.005420
    17  H   -0.044519   0.407250  -0.035528  -0.008235  -0.000544   0.008632
    18  H    0.000192  -0.004623  -0.044516   0.407332   0.000018  -0.004867
    19  H   -0.000409  -0.009182  -0.036108   0.397175  -0.000117   0.009592
    20  H   -0.000290   0.006772  -0.031119   0.398058   0.000015  -0.007422
    21  H   -0.000405   0.000290  -0.000089  -0.000117   0.401874   0.000059
    22  H    0.000208  -0.000011  -0.000116   0.000018   0.410402   0.000015
    23  H   -0.000381  -0.000120   0.000531  -0.000008   0.404809  -0.000042
    24  H    0.421275  -0.060496   0.005168  -0.000228  -0.000138   0.002238
[...]
 06,0.00132414,-0.00196584,0.00098584,0.00147996,0.00251849,-0.00454086
 ,-0.00436824,0.00058090,0.00107273,0.02995487,0.00776552,0.06694464,0.
 00020100,0.00008606,0.00026997,-0.00000587,-0.00000152,-0.00004235,-0.
 00074541,-0.00167966,-0.00011641,-0.00130680,-0.00044986,-0.00245309,-
 0.00080961,0.00031375,0.00080181,-0.00029395,0.00020767,0.00003575,-0.
 00008315,-0.00006658,-0.00033646,-0.00015673,-0.00028698,-0.00000208,-
 0.00139478,0.00097916,-0.00049521,-0.00000709,-0.00008818,0.00030442,-
 0.00001346,0.00013779,0.00033191,-0.00016690,-0.00044124,0.00001265,0.
 00012191,0.00049374,0.00015830,0.00009925,0.00009543,0.00014504,0.0000
 3073,-0.00001834,-0.00001845,0.00010773,-0.00001160,0.00013285,0.00004
 068,0.00004326,-0.00000878,0.00011446,-0.00014480,-0.00001705,0.000033
 00,0.00003685,-0.00002084,0.00012759,0.00013082,0.00009718,0.00000829,
 -0.00004693,-0.00001144,0.00001779,0.00017026,-0.00005894,0.00003939,-
 0.00007779,0.00004170,-0.00001252,-0.00000766,-0.00000485,-0.00001354,
 0.00129434,-0.00096055,-0.00004785,-0.00017556,0.00031274,0.00013992,0
 .00007150,0.00001790,-0.00026328,0.00013262,0.00015925,0.00058378,-0.0
 0017872,-0.00013654,0.00006139,-0.00000695,-0.00001151,0.00017639,0.00
 004310,0.00098330,0.00009576,0.00093250,0.00003319,-0.00043956,0.00074
 246,0.00051384,-0.42077316,-0.00790391,-0.00924084,-0.01179830,0.00068
 596,-0.00408967,0.00110152,0.00054677,-0.00032263,0.00027935,-0.000574
 98,0.00092149,0.00158671,-0.00037458,-0.00088824,-0.00003486,-0.000117
 02,-0.00000180,0.00016659,0.00025104,-0.00005890,0.44324628,0.00010742
 ,-0.00005116,0.00011830,-0.00001287,-0.00000260,-0.00003488,-0.0005285
 4,-0.00024731,0.00009334,-0.00015744,-0.00021437,-0.00069709,0.0009319
 6,-0.00116241,-0.00026594,0.00004668,-0.00003455,-0.00017434,-0.000071
 32,0.00012204,-0.00014544,-0.00013025,-0.00020949,0.00016808,-0.000641
 78,0.00074857,-0.00023295,0.00007454,-0.00002406,0.00024085,0.00001278
 ,-0.00000268,0.00007156,0.00076959,0.00048651,0.00056651,-0.00069538,0
 .00062912,-0.00052476,0.00000069,0.00000320,0.00003324,0.00010775,-0.0
 0002074,0.00003928,0.00007651,-0.00001322,0.00006023,-0.00005317,-0.00
 003354,-0.00004357,0.00000016,-0.00007630,-0.00004635,-0.00008321,0.00
 001503,-0.00000132,-0.00000974,-0.00003530,-0.00012245,0.00005881,0.00
 001961,-0.00003625,0.00001875,0.00005727,-0.00000111,0.00000314,-0.000
 07662,0.00008384,-0.00000899,0.00001226,-0.00000797,0.00094643,-0.0013
 8724,0.00113819,-0.00040352,-0.00018577,-0.00020054,-0.00011857,-0.000
 04052,-0.00021730,0.00040498,0.00027219,0.00038302,0.00049504,-0.00231
 977,-0.00057053,0.00012238,-0.00002114,0.00011916,-0.00004700,-0.00024
 536,0.00036662,0.00174506,0.00151367,0.00080304,0.00172408,0.00238886,
 0.00101658,0.04113293,-0.01784842,-0.00127727,-0.02596144,-0.00560887,
 -0.00705263,0.00093870,0.00059371,0.00055111,-0.00566535,-0.00152263,-
 0.00104576,0.00000043,-0.00111280,-0.00226725,0.00010872,-0.00011354,0
 .00013979,0.00022002,0.00051644,-0.00001315,0.00085268,0.02870465,0.00
 003024,0.00002411,0.00000040,-0.00000212,-0.00000585,0.00000395,-0.000
 22128,0.00037421,0.00005752,-0.00165671,-0.00056659,-0.00010860,-0.000
 15147,-0.00013350,-0.00071633,0.00013976,-0.00011625,-0.00007116,-0.00
 001447,-0.00002403,0.00006910,0.00010842,0.00018143,-0.00014693,-0.000
 07240,-0.00050190,0.00031857,0.00004611,0.00009576,-0.00010143,0.00005
 168,-0.00004051,-0.00008526,-0.00064786,-0.00047484,-0.00047847,-0.000
 45406,-0.00007685,-0.00030651,-0.00004579,-0.00002284,-0.00005252,0.00
 003850,0.00000947,0.00002345,-0.00005844,-0.00000308,-0.00005632,0.000
 06468,0.00003233,0.00003727,-0.00002151,0.00004044,0.00000644,0.000043
 86,-0.00003215,-0.00003614,-0.00004303,-0.00002666,-0.00001200,0.00001
 373,0.00003203,-0.00002552,0.00000052,-0.00004126,0.00001211,-0.000014
 71,0.00002071,-0.00000429,0.00001818,-0.00000093,-0.00003426,-0.000596
 25,0.00145909,-0.00002715,0.00050175,0.00007985,0.00013212,-0.00000829
 ,0.00002176,-0.00021500,0.00032562,0.00013129,0.00003658,0.00019886,-0
 .00094059,0.00012525,-0.00000841,-0.00003330,-0.00016421,0.00113586,0.
 00027576,0.00048786,0.00023169,-0.00025609,0.00014377,0.00108709,0.000
 34242,-0.00021117,-0.01306656,-0.00413012,-0.06429769,-0.03476937,0.00
 118445,-0.00242305,-0.00347837,-0.00047012,0.00052837,-0.00120664,-0.0
 0000940,-0.00005428,-0.00144985,-0.00358068,-0.00480410,0.00027269,0.0
 0002111,-0.00001419,0.00134283,0.00011488,-0.00120118,0.01654132,0.008
 33153,0.07108760,0.00000343,0.00001749,-0.00000427,0.00000064,-0.00000
 243,0.00000360,0.00005380,0.00017601,0.00002327,-0.00031028,-0.0000642
 7,0.00008224,-0.00133938,-0.00016180,0.00021193,0.00003332,-0.00002366
 ,-0.00000026,0.00000372,-0.00002529,0.00002371,0.00006111,0.00007619,-
 0.00008130,0.00015727,-0.00024908,0.00023677,0.00000168,0.00003446,-0.
 00006222,0.00000642,-0.00001879,-0.00003576,-0.00011355,-0.00023894,-0
 .00029121,-0.00005978,-0.00009421,-0.00002766,-0.00001232,-0.00000510,
 -0.00001709,0.00000138,0.00000427,0.00000303,-0.00002813,0.00000111,-0
 .00002276,0.00003337,0.00001886,0.00001994,-0.00000741,0.00002179,0.00
 001011,0.00002315,-0.00001085,-0.00001530,-0.00001500,0.00000577,0.000
 02531,-0.00000139,0.00000739,-0.00000536,-0.00000006,-0.00001742,0.000
 00634,-0.00000249,0.00000642,-0.00000964,0.00000327,-0.00000449,-0.000
 01349,-0.00029383,0.00033289,0.00029074,0.00022791,0.00005128,0.000068
 30,-0.00002041,-0.00000386,-0.00004261,0.00005726,0.00000611,-0.000026
 96,-0.00003395,0.00005631,0.00002835,-0.00002062,-0.00000407,-0.000051
 70,0.00087435,-0.00034333,-0.00221888,-0.00038826,-0.00088233,-0.00021
 638,0.00016345,-0.00044460,-0.00054259,-0.09733752,-0.05837266,0.09927
 138,0.00569990,0.00785737,-0.01210491,-0.00139233,-0.00213296,-0.00087
 148,0.00027187,0.00057577,0.00051409,0.00012847,0.00053708,0.00006067,
 -0.00013357,-0.00016288,0.00024481,0.00043471,0.00015595,-0.00013129,-
 0.00994881,-0.01633178,0.03569777,0.10309043,-0.00001842,-0.00001660,-
 0.00002676,-0.00000073,0.00000012,0.00000247,0.00003587,0.00011868,0.0
 0006440,-0.00000387,0.00008984,0.00012003,-0.00048932,-0.00009088,0.00
 002530,0.00003127,-0.00001066,-0.00001786,0.00000361,0.00002109,0.0000
 2986,-0.00000480,0.00000060,0.00003170,0.00009101,-0.00002749,-0.00009
 835,0.00000299,-0.00000748,-0.00000849,0.00002244,-0.00001376,-0.00001
 925,0.00000596,0.00015173,0.00011318,0.00002415,-0.00000118,-0.0001934
 8,-0.00000729,-0.00000962,-0.00000996,0.00000304,0.00000098,0.00000584
 ,-0.00000157,0.,-0.00000508,-0.00001727,-0.00001267,-0.00000683,-0.000
 00852,0.00000802,-0.00000234,-0.00001285,-0.00000299,0.00000551,0.0000
 0445,-0.00001207,-0.00002645,-0.00000147,0.00000446,-0.00000328,-0.000
 00362,-0.00001407,0.00000343,0.00000776,0.00001979,0.00000138,0.000000
 82,0.00000311,0.00000134,0.00018511,-0.00013999,-0.00003738,-0.0000625
 1,-0.00000365,-0.00005953,-0.00002567,-0.00002111,-0.00002354,0.000039
 64,0.00000129,-0.00000495,-0.00003945,-0.00009308,0.00034607,-0.000043
 19,-0.00001393,-0.00002319,-0.00011024,0.00054873,-0.00124452,0.000212
 49,0.00096816,0.00032169,0.00009483,0.00053082,0.00109805,-0.08201806,
 -0.08511529,0.15584990,0.00931073,0.00172314,-0.02612232,-0.00109013,-
 0.00227933,-0.00118064,-0.00005595,0.00070769,-0.00249952,-0.00007695,
 0.00035151,0.00085302,0.00001222,0.00037405,-0.00031666,0.00002183,-0.
 00019602,-0.00005192,0.00434082,-0.00312337,-0.00136782,0.06961438,0.0
 8549954,-0.00001944,-0.00001182,-0.00002752,-0.00000025,0.00000039,0.0
 0000372,0.00006524,0.00015531,0.00001890,-0.00009523,-0.00000881,0.000
 05076,-0.00046905,-0.00012490,0.00014667,0.00002582,-0.00001255,-0.000
 00639,0.00000654,0.00001101,0.00003396,0.00000101,0.00000576,0.0000192
 2,0.00010599,-0.00009268,-0.00002231,0.00000929,0.00001093,-0.00001220
 ,0.00001009,-0.00000949,-0.00002551,0.00000387,0.00017388,0.00008781,0
 .00001205,0.00002031,-0.00008640,-0.00000764,-0.00000692,-0.00000965,-
 0.00000267,0.00000126,0.00000266,-0.00000375,0.00000283,-0.00000569,-0
 .00001195,-0.00000886,-0.00000142,-0.00001036,0.00001093,-0.00000153,-
 0.00000906,-0.00000466,-0.00000008,0.00000243,-0.00001204,-0.00002335,
 -0.00000127,0.00000395,-0.00000070,-0.00000140,-0.00001520,0.00000460,
 0.00000537,0.00001036,-0.00000260,0.00000271,0.00000282,0.00000057,0.0
 0018487,-0.00017263,0.00008013,-0.00004216,0.00001009,-0.00005450,0.00
 005098,-0.00005793,-0.00001868,0.00003508,-0.00000732,-0.00001117,0.00
 020864,0.00020862,0.00023017,-0.00001309,0.00001555,-0.00001924,0.0005
 4191,0.00036043,-0.00212726,0.00025814,0.00070411,0.00002549,0.0007034
 8,0.00013260,0.00050811,0.11542321,0.11431073,-0.32927429,0.00942837,0
 .01308892,-0.02456978,-0.00304327,-0.00471507,-0.00171232,-0.00046275,
 0.00033419,0.00051107,-0.00017952,0.00034557,0.00067332,-0.00014578,0.
 00015326,0.00029529,-0.00001243,-0.00015075,0.00022604,-0.00246116,0.0
 0073136,0.00220174,-0.12034353,-0.12550743,0.35285327,0.00000437,0.000
 00338,0.00000653,0.00000011,-0.00000115,-0.00000138,-0.00000555,-0.000
 01872,0.00000418,0.00000492,0.00000591,-0.00000474,0.00006681,0.000031
 44,0.00001457,-0.00000236,0.00000175,-0.00000208,-0.00000064,-0.000001
 46,-0.00000511,-0.00000050,-0.00000040,-0.00000383,-0.00001490,0.00001
 027,0.00000273,-0.00000205,-0.00000196,-0.00000048,-0.00000071,-0.0000
 0075,0.00000503,-0.00000761,-0.00001557,-0.00000734,-0.00000526,0.0000
 1312,-0.00000650,0.00000132,0.00000139,0.00000196,0.00000116,-0.000000
 19,0.00000099,0.00000070,-0.00000089,0.00000172,0.00000138,0.00000121,
 0.00000105,0.00000266,-0.00000196,0.00000135,0.00000270,0.00000118,-0.
 00000026,-0.00000238,0.00000281,0.00000600,0.00000074,-0.00000017,-0.0
 0000098,0.00000049,0.00000376,0.00000005,-0.00000175,-0.00000278,-0.00
 000023,-0.00000090,-0.00000063,-0.00000088,-0.00000797,0.00000865,-0.0
 0001234,0.00000666,-0.00000155,0.00000682,0.00000228,0.00000416,0.0000
 0193,0.00000253,0.00000411,0.00000431,-0.00000290,-0.00001633,-0.00000
 295,0.00000116,-0.00000231,0.00000089,-0.52065291,-0.04346258,-0.08294
 164,-0.00002867,-0.00021082,0.00034701,0.00035805,-0.00020568,0.000086
 76,-0.00027862,-0.00007868,0.00115837,0.00225259,0.00136229,0.00022366
 ,-0.00608311,0.00049567,0.00132671,-0.00075868,0.00055846,-0.00087771,
 -0.00063656,0.00038546,-0.00061140,0.00083067,0.00072546,0.00150674,0.
 00243574,-0.00109777,-0.00085454,-0.00015433,-0.00006425,0.00005180,0.
 00017200,0.00002287,0.00018102,0.52247623,-0.00000497,-0.00000288,-0.0
 0000608,0.00000017,0.00000020,0.00000068,0.00000578,0.00003056,-0.0000
 0224,-0.00004025,0.00000293,-0.00000379,-0.00010889,-0.00005066,-0.000
 07092,0.00000503,-0.00000521,-0.00000038,0.00000183,0.00000265,0.00000
 793,0.00000279,0.00000585,-0.00000028,0.00001532,-0.00002134,-0.000003
 60,0.00000253,0.00000264,-0.00000078,0.00000170,-0.00000290,-0.0000057
 3,0.00000075,0.00001109,0.00000074,-0.00000122,-0.00001368,0.00000280,
 -0.00000221,-0.00000201,-0.00000295,-0.00000143,0.00000056,0.00000020,
 -0.00000231,-0.00000011,-0.00000252,-0.00000170,-0.00000137,0.00000013
 ,-0.00000248,0.00000245,-0.00000025,-0.00000239,-0.00000143,0.00000005
 ,0.00000252,-0.00000278,-0.00000589,-0.00000057,0.00000062,0.00000047,
 -0.00000080,-0.00000343,0.00000075,0.00000074,0.00000465,-0.00000020,0
 .00000021,0.00000024,0.00000051,0.00000401,-0.00000513,0.00001551,-0.0
 0000072,0.00000308,-0.00000491,-0.00000345,-0.00000352,-0.00000307,0.0
 0000089,-0.00000418,-0.00000463,-0.00000159,0.00000974,0.00000191,-0.0
 0000067,0.00000139,0.00000015,-0.01437632,-0.01946661,-0.02215483,-0.0
 0057121,0.00009793,-0.00104472,-0.00074187,0.00002711,-0.00023770,-0.0
 0007924,-0.00024559,0.00041880,0.00130411,0.00137959,0.00009568,-0.027
 69747,-0.00479011,-0.00632436,0.00190819,0.00044569,0.00100407,0.00019
 997,0.00021454,-0.00035691,-0.00113660,0.00037410,0.00081022,-0.000117
 03,-0.00186035,-0.00370611,-0.00000349,-0.00002574,0.00011691,0.000034
 34,0.00001781,0.00006224,0.04148079,0.02409963,0.00000806,0.00000454,0
 .00000884,-0.00000035,-0.00000061,-0.00000097,-0.00002138,-0.00001598,
 0.00001045,-0.00001247,0.00000406,-0.00002719,0.00008485,0.00003958,-0
 .00008569,0.00000055,-0.00000147,-0.00000457,-0.00000285,-0.00000363,-
 0.00000739,-0.00000026,0.00000587,-0.00000835,-0.00002533,-0.00000589,
 0.00001149,-0.00000477,-0.00000248,-0.00000734,0.00000098,0.00000012,0
 .00000491,-0.00001975,-0.00002727,-0.00001620,-0.00001381,0.00001943,-
 0.00001729,-0.00000007,0.00000129,0.00000114,0.00000371,-0.00000044,0.
 00000092,-0.00000087,-0.00000083,0.00000015,0.00000437,0.00000299,0.00
 000115,0.00000335,-0.00000147,0.00000207,0.00000602,0.00000177,0.00000
 007,-0.00000744,0.00000368,0.00001276,0.00000153,0.00000006,-0.0000016
 1,0.00000004,0.00000278,-0.00000062,-0.00000165,-0.00000184,0.00000089
 ,0.00000006,-0.00000048,-0.00000220,-0.00001991,0.00002327,-0.00003343
 ,0.00001512,-0.00000147,0.00001048,0.00000607,0.00000774,0.00000364,0.
 00000883,0.00000854,0.00000749,-0.00000826,-0.00003882,-0.00000141,0.0
 0000226,-0.00000374,-0.00000134,-0.04068597,-0.02293822,-0.03848383,0.
 00037738,-0.00074486,0.00056978,0.00122785,-0.00069749,0.00047722,0.00
 067917,0.00013032,0.00064383,-0.00262038,0.00015299,-0.00008764,-0.039
 57119,-0.00604351,-0.01175009,-0.00216397,0.00130368,-0.00182477,0.001
 06895,0.00012964,-0.00084525,0.00077786,0.00009915,0.00136468,0.000113
 14,-0.00327715,-0.00410835,-0.00001273,0.00000035,0.00034487,0.0003100
 5,-0.00002334,0.00011165,0.08037130,0.03159820,0.05345601,0.00000220,0
 .00000355,0.00000352,0.00000024,-0.00000011,-0.00000018,0.00000195,-0.
 00000971,-0.00000456,-0.00000004,-0.00000073,-0.00000184,0.00000500,0.
 00004034,0.00001139,-0.00000248,0.00000106,0.00000252,0.00000017,-0.00
 000444,-0.00000290,-0.00000037,0.00000547,-0.00000451,0.00000191,-0.00
 000603,0.00001004,-0.00000551,-0.00000183,-0.00000833,-0.00000050,0.00
 000122,0.00000205,-0.00002579,0.00001118,-0.00000213,0.00000223,-0.000
 00066,0.00000675,0.00000071,0.00000148,0.00000072,-0.00000093,0.000000
 06,-0.00000063,-0.00000094,-0.00000055,-0.00000014,0.00000228,0.000001
 15,0.00000078,0.00000133,0.00000007,0.00000163,0.00000435,0.00000180,0
 .00000102,-0.00000516,0.00000294,0.00000974,-0.00000072,-0.00000049,0.
 00000018,0.00000008,0.00000124,-0.00000022,0.00000061,-0.00000011,-0.0
 0000086,0.,-0.00000049,-0.00000020,0.00000838,-0.00002139,-0.00003332,
 0.00000510,-0.00000067,0.00000277,0.00000846,0.00000575,0.00000975,-0.
 00000414,-0.00000081,-0.00000196,0.00000880,0.00001011,-0.00000221,-0.
 00000014,-0.00000094,-0.00000208,-0.00007842,-0.00000672,0.00001717,-0
 .12169071,0.19635837,-0.01506436,-0.00199314,0.00385371,0.00252387,0.0
 0042496,-0.00148980,-0.00043948,-0.00183097,-0.00077254,-0.00387639,-0
 .00013356,0.00046990,0.00024576,0.01643595,-0.03483797,0.00033607,0.00
 041256,-0.00027052,0.00010241,0.00008158,0.00004846,-0.00006978,0.0000
 3835,-0.00001547,-0.00001049,0.00009048,0.00008439,0.00004463,-0.00004
 385,0.00000358,0.00006965,0.00002309,-0.00007278,0.00012192,0.10825659
 ,0.00001145,0.00001141,0.00001558,0.00000029,-0.00000039,-0.00000100,-
 0.00001170,-0.00003952,-0.00000224,0.00000994,-0.00000042,-0.00002001,
 0.00008015,0.00014910,0.00001859,-0.00000752,0.00000519,0.00000445,0.0
 0000003,-0.00001404,-0.00001261,-0.00000118,0.00001360,-0.00001683,-0.
 00001531,-0.00001693,0.00003540,-0.00002249,-0.00001388,-0.00004379,-0
 .00000205,0.00000614,0.00000762,-0.00007626,0.00002161,-0.00002473,0.0
 0000853,0.00001012,0.00000928,0.00000272,0.00000394,0.00000328,0.00000
 071,-0.00000073,-0.00000147,-0.00000171,0.00000003,0.00000033,0.000009
 92,0.00000662,0.00000269,0.00001196,-0.00000064,0.00000918,0.00001966,
 0.00000678,0.00000480,-0.00003063,0.00001159,0.00005079,0.,-0.00000161
 ,-0.00000034,0.00000049,0.00000422,-0.00000156,0.00000174,-0.00000238,
 0.00000006,0.00000004,-0.00000109,-0.00000260,-0.00000203,-0.00006716,
 -0.00011138,0.00002394,-0.00000375,0.00001954,0.00003237,0.00002050,0.
 00003330,-0.00000611,0.00000417,0.00000077,-0.00000056,0.00000738,-0.0
 0000343,0.00000104,-0.00000366,-0.00000437,0.00004666,0.00078328,-0.00
 008757,0.15554821,-0.41937415,0.00176633,0.00684519,0.00575240,0.00515
 762,-0.00026775,-0.00107687,-0.00006971,-0.00369324,0.00186336,-0.0029
 6995,-0.00001801,-0.00055646,-0.00009762,0.00452387,-0.04321884,-0.005
 61047,0.00024791,0.00065504,0.00006486,-0.00001964,0.00003785,-0.00000
 694,0.00000669,-0.00000840,-0.00001654,0.00006777,-0.00032357,-0.00003
 419,0.00000354,0.00006407,0.00005166,0.00006244,-0.00022605,0.00029095
 ,-0.16339109,0.45551211,0.00000553,0.00000406,0.00000523,-0.00000037,-
 0.00000041,-0.00000011,-0.00000874,-0.00001367,0.00000429,0.00000189,-
 0.00000010,-0.00001152,0.00004378,0.00005139,-0.00000892,-0.00000116,0
 .00000068,-0.00000089,-0.00000210,-0.00000438,-0.00000452,-0.00000070,
 0.00000381,-0.00000538,-0.00001056,-0.00000395,0.00000873,-0.00000563,
 -0.00000559,-0.00001720,0.00000030,0.00000132,0.00000369,-0.00001678,-
 0.00000454,-0.00000631,-0.00000217,0.00000870,-0.00000399,0.00000052,0
 .00000133,0.00000114,0.00000178,-0.00000008,0.00000002,-0.00000082,-0.
 00000024,0.00000047,0.00000356,0.00000224,0.00000072,0.00000351,-0.000
 00050,0.00000263,0.00000787,0.00000308,0.00000152,-0.00000955,0.000002
 73,0.00002297,0.00000113,0.,-0.00000073,0.00000016,0.00000174,-0.00000
 076,-0.00000013,-0.00000056,0.00000088,0.00000049,-0.00000045,-0.00000
 152,-0.00000546,-0.00000294,-0.00003347,0.00000805,-0.00000043,0.00000
 704,0.00000639,0.00000501,0.00000651,0.00000217,0.00000373,0.00000325,
 0.00000095,-0.00000912,0.00000346,0.00000114,-0.00000169,-0.00000114,0
 .00027955,0.00043328,-0.00030642,-0.02306158,0.02108170,-0.02322307,0.
 00280735,0.00384754,-0.00355195,0.00004889,0.00022193,-0.00035134,-0.0
 0353902,-0.00223928,0.00449415,0.00031399,-0.00146225,-0.00058688,0.00
 759133,-0.02330985,0.00357294,-0.00027315,0.00018204,-0.00030820,-0.00
 015368,-0.00015184,0.00025875,-0.00002199,0.00002782,0.00000756,-0.000
 04410,-0.00007713,0.00003080,0.00000424,0.00000770,-0.00007257,0.00002
 090,-0.00019511,0.00027103,0.01600221,0.00159228,0.01978908\\0.0000027
 0,-0.00000163,-0.00000225,0.00000282,-0.00000306,-0.00000059,0.0000015
 4,-0.00000395,-0.00000394,0.00000717,-0.00000458,0.00000586,-0.0000022
 5,0.00000900,0.00000482,0.00000289,-0.00000048,0.00000099,0.00000251,-
 0.00000228,-0.00000026,0.00000189,-0.00000304,-0.00000243,-0.00000397,
 0.00000509,-0.00000321,-0.00000245,0.00000072,0.00000086,0.00000216,-0
 .00000019,-0.00000027,-0.00000034,-0.00000179,-0.00000318,-0.00000055,
 0.00000014,0.00000029,0.00000336,-0.00000263,-0.00000131,0.00000234,-0
 .00000276,-0.00000130,0.00000037,-0.00000186,-0.00000075,0.00000072,-0
 .00000293,-0.00000239,-0.00000157,-0.00000208,-0.00000091,-0.00000181,
 -0.00000265,-0.00000221,-0.00000261,-0.00000541,-0.00000135,0.00000163
 ,-0.00000150,-0.00000102,0.00000312,-0.00000065,0.00000005,0.00000018,
 -0.00000113,0.,0.00000274,-0.00000063,-0.00000084,-0.00000171,-0.00000
 174,-0.00000097,-0.00000013,-0.00000047,0.00000021,-0.00000004,0.00000
 004,0.00000046,0.00000352,0.00000030,0.00000055,0.00000040,-0.00000184
 ,-0.00000183,0.00000277,-0.00000074,0.00000080,-0.00000257,-0.00000090
 ,0.00001254,-0.00000062,0.00000541,0.00000011,-0.00000654,-0.00000179,
 0.00000053,0.00000737,0.00001357,-0.00000360,-0.00000651,-0.00000607,-
 0.00000644,-0.00000805,0.00000202,-0.00000312,0.00000120,0.00000392,0.
 00000487,-0.00000159,-0.00000003,0.00000599,-0.00000045,0.00000439,0.0
 0000559,-0.00000540,0.00000297,-0.00000529,0.00000247,-0.00000156,0.00
 000309,-0.00000355,0.00000206,0.00000046,0.00000091,0.00000857,0.00000
 059,-0.00000410,0.00000217,0.00000080\\\@


 A MAN BEGINS CUTTING HIS WISDOM TEETH THE 1ST
 TIME HE BITES OFF MORE THAN HE CAN CHEW.
 Job cpu time:       0 days 15 hours 31 minutes  1.0 seconds.
 Elapsed time:       0 days  1 hours 56 minutes 56.6 seconds.
 File lengths (MBytes):  RWF=   1986 Int=      0 D2E=      0 Chk=     40 Scr=      1
 Normal termination of Gaussian 16 at Tue Apr 27 11:38:21 2021.
