 Entering Gaussian System, Link 0=g16
 Input=Tem_Ser_CA-H.gjf
 Output=Tem_Ser_CA-H.log
 Initial command:
 /share/apps/g16/l1.exe "/backup/31787.cluster.hpc/Gau-62840.inp" -scrdir="/backup/31787.cluster.hpc/"
 Entering Link 1 = /share/apps/g16/l1.exe PID=     62841.
  
 Copyright (c) 1988,1990,1992,1993,1995,1998,2003,2009,2016,
            Gaussian, Inc.  All Rights Reserved.
  
 This is part of the Gaussian(R) 16 program.  It is based on
 the Gaussian(R) 09 system (copyright 2009, Gaussian, Inc.),
 the Gaussian(R) 03 system (copyright 2003, Gaussian, Inc.),
 the Gaussian(R) 98 system (copyright 1998, Gaussian, Inc.),
 the Gaussian(R) 94 system (copyright 1995, Gaussian, Inc.),
 the Gaussian 92(TM) system (copyright 1992, Gaussian, Inc.),
 the Gaussian 90(TM) system (copyright 1990, Gaussian, Inc.),
 the Gaussian 88(TM) system (copyright 1988, Gaussian, Inc.),
 the Gaussian 86(TM) system (copyright 1986, Carnegie Mellon
 University), and the Gaussian 82(TM) system (copyright 1983,
 Carnegie Mellon University). Gaussian is a federally registered
 trademark of Gaussian, Inc.
  
 This software contains proprietary and confidential information,
 including trade secrets, belonging to Gaussian, Inc.
  
 This software is provided under written license and may be
 used, copied, transmitted, or stored only in accord with that
 written license.
  
 The following legend is applicable only to US Government
 contracts under FAR:
  
                    RESTRICTED RIGHTS LEGEND
  
 Use, reproduction and disclosure by the US Government is
 subject to restrictions as set forth in subparagraphs (a)
 and (c) of the Commercial Computer Software - Restricted
 Rights clause in FAR 52.227-19.
  
 Gaussian, Inc.
 340 Quinnipiac St., Bldg. 40, Wallingford CT 06492
  
  
 ---------------------------------------------------------------
 Warning -- This program may not be used in any manner that
 competes with the business of Gaussian, Inc. or will provide
 assistance to any competitor of Gaussian, Inc.  The licensee
 of this program is prohibited from giving any competitor of
 Gaussian, Inc. access to this program.  By using this program,
 the user acknowledges that Gaussian, Inc. is engaged in the
 business of creating and licensing software in the field of
 computational chemistry and represents and warrants to the
 licensee that it is not a competitor of Gaussian, Inc. and that
 it will not use this program in any manner prohibited above.
 ---------------------------------------------------------------
  

 Cite this work as:
 Gaussian 16, Revision A.03,
 M. J. Frisch, G. W. Trucks, H. B. Schlegel, G. E. Scuseria, 
 M. A. Robb, J. R. Cheeseman, G. Scalmani, V. Barone, 
 G. A. Petersson, H. Nakatsuji, X. Li, M. Caricato, A. V. Marenich, 
 J. Bloino, B. G. Janesko, R. Gomperts, B. Mennucci, H. P. Hratchian, 
 J. V. Ortiz, A. F. Izmaylov, J. L. Sonnenberg, D. Williams-Young, 
 F. Ding, F. Lipparini, F. Egidi, J. Goings, B. Peng, A. Petrone, 
 T. Henderson, D. Ranasinghe, V. G. Zakrzewski, J. Gao, N. Rega, 
 G. Zheng, W. Liang, M. Hada, M. Ehara, K. Toyota, R. Fukuda, 
 J. Hasegawa, M. Ishida, T. Nakajima, Y. Honda, O. Kitao, H. Nakai, 
 T. Vreven, K. Throssell, J. A. Montgomery, Jr., J. E. Peralta, 
 F. Ogliaro, M. J. Bearpark, J. J. Heyd, E. N. Brothers, K. N. Kudin, 
 V. N. Staroverov, T. A. Keith, R. Kobayashi, J. Normand, 
 K. Raghavachari, A. P. Rendell, J. C. Burant, S. S. Iyengar, 
 J. Tomasi, M. Cossi, J. M. Millam, M. Klene, C. Adamo, R. Cammi, 
 J. W. Ochterski, R. L. Martin, K. Morokuma, O. Farkas, 
 J. B. Foresman, and D. J. Fox, Gaussian, Inc., Wallingford CT, 2016.
 
 ******************************************
 Gaussian 16:  ES64L-G16RevA.03 25-Dec-2016
                24-Dec-2020 
 ******************************************
 %mem=2GB
 %nprocshared=8
 Will use up to    8 processors via shared memory.
 %chk=Tem_Ser_CA-H.chk
 -----------------------------------------------------
 # opt freq m062x/6-311g(d,p) scrf=(solvent=water,pcm)
 -----------------------------------------------------
 1/18=20,19=15,26=3,38=1/1,3;
 2/9=110,12=2,17=6,18=5,40=1/2;
 3/5=4,6=6,7=101,11=2,25=1,30=1,70=2201,71=1,72=1,74=-55/1,2,3;
 4//1;
 5/5=2,38=5,53=1/2;
 6/7=2,8=2,9=2,10=2,28=1/1;
 7//1,2,3,16;
 1/18=20,19=15,26=3/3(2);
 2/9=110/2;
 99//99;
 2/9=110/2;
 3/5=4,6=6,7=101,11=2,25=1,30=1,70=2205,71=1,72=1,74=-55/1,2,3;
 4/5=5,16=3,69=1/1;
 5/5=2,38=5,53=1/2;
 7//1,2,3,16;
 1/18=20,19=15,26=3/3(-5);
 2/9=110/2;
 6/7=2,8=2,9=2,10=2,19=2,28=1/1;
 99/9=1/99;
 -------------------
 Title Card Required
 -------------------
 Symbolic Z-matrix:
 Charge =  0 Multiplicity = 2
 O                    0     4.43107   0.47795   1.68828  L 
 H                    0     4.47003   1.32714   2.13856  L 
 C                    0     1.44376   1.24283  -0.53119  L 
 N                    0     1.18287  -0.18949  -0.87163  L 
 O                    0     0.15315  -0.41742  -1.58348  L 
 C                    0     2.82661   1.38693   0.11155  L 
 C                    0     3.1244    0.32097   1.15466  L 
 C                    0     3.09087  -1.0331    0.47462  L 
 C                    0     1.72933  -1.37252  -0.13758  L 
 C                    0     1.89653  -2.50445  -1.15201  L 
 C                    0     1.40929   2.04066  -1.83604  L 
 C                    0     0.71948  -1.79877   0.93754  L 
 C                    0     0.33084   1.73963   0.4002   L 
 H                    0     2.88852   2.38647   0.55215  L 
 H                    0     3.60231   1.31827  -0.65837  L 
 H                    0     3.35295  -1.81897   1.18715  L 
 H                    0     3.8574   -1.02795  -0.30762  L 
 H                    0     2.35621  -3.36076  -0.65434  L 
 H                    0     2.54314  -2.18768  -1.97271  L 
 H                    0     0.93124  -2.80582  -1.55627  L 
 H                    0     2.12019   1.62773  -2.55418  L 
 H                    0     1.68577   3.0755   -1.62427  L 
 H                    0     0.41374   2.03188  -2.27927  L 
 H                    0     2.38737   0.36036   1.96646  L 
 H                    0    -0.24392  -2.02875   0.47776  L 
 H                    0     1.08678  -2.69939   1.43405  L 
 H                    0     0.57322  -1.02883   1.69765  L 
 H                    0     0.47225   2.80507   0.59417  L 
 H                    0    -0.64373   1.60651  -0.0708   L 
 H                    0     0.32648   1.2177    1.3591   L 
 O                    0    -2.53744   1.49025  -2.98045  H 
 O                    0    -2.93401  -0.85543  -0.86368  H 
 O                    0    -4.15679  -1.73323  -2.51478  H 
 N                    0    -1.67909  -1.95052  -4.00169  H 
 C                    0    -1.97026  -0.88744  -3.05142  H 
 C                    0    -2.31914   0.38623  -3.83208  H 
 C                    0    -3.1381   -1.21433  -2.13495  H 
 H                    0    -1.0873   -0.69199  -2.44102  H 
 H                    0    -1.50485   0.57258  -4.53737  H 
 H                    0    -3.23964   0.20942  -4.39653  H 
 H                    0    -2.5438   -2.22644  -4.46076  H 
 H                    0    -1.34341  -2.77348  -3.51141  H 
 H                    0    -1.65505   1.82245  -2.75711  H 
 H                    0    -3.73491  -1.06302  -0.35914  H 
 
 Add virtual bond connecting atoms H38        and O5         Dist= 2.90D+00.

 GradGradGradGradGradGradGradGradGradGradGradGradGradGradGradGradGradGrad
 Berny optimization.
 Initialization pass.
                           ----------------------------
                           !    Initial Parameters    !
                           ! (Angstroms and Degrees)  !
 --------------------------                            --------------------------
 ! Name  Definition              Value          Derivative Info.                !
 --------------------------------------------------------------------------------
 ! R1    R(1,2)                  0.962          estimate D2E/DX2                !
 ! R2    R(1,7)                  1.4201         estimate D2E/DX2                !
 ! R3    R(3,4)                  1.4952         estimate D2E/DX2                !
 ! R4    R(3,6)                  1.5317         estimate D2E/DX2                !
 ! R5    R(3,11)                 1.5298         estimate D2E/DX2                !
 ! R6    R(3,13)                 1.5339         estimate D2E/DX2                !
 ! R7    R(4,5)                  1.2724         estimate D2E/DX2                !
 ! R8    R(4,9)                  1.4957         estimate D2E/DX2                !
 ! R9    R(5,38)                 1.5328         estimate D2E/DX2                !
 ! R10   R(6,7)                  1.5209         estimate D2E/DX2                !
 ! R11   R(6,14)                 1.0941         estimate D2E/DX2                !
 ! R12   R(6,15)                 1.0951         estimate D2E/DX2                !
 ! R13   R(7,8)                  1.5156         estimate D2E/DX2                !
 ! R14   R(7,24)                 1.0972         estimate D2E/DX2                !
 ! R15   R(8,9)                  1.5309         estimate D2E/DX2                !
 ! R16   R(8,16)                 1.0927         estimate D2E/DX2                !
 ! R17   R(8,17)                 1.0952         estimate D2E/DX2                !
 ! R18   R(9,10)                 1.5292         estimate D2E/DX2                !
 ! R19   R(9,12)                 1.5354         estimate D2E/DX2                !
 ! R20   R(10,18)                1.0919         estimate D2E/DX2                !
 ! R21   R(10,19)                1.0918         estimate D2E/DX2                !
 ! R22   R(10,20)                1.0891         estimate D2E/DX2                !
 ! R23   R(11,21)                1.0916         estimate D2E/DX2                !
 ! R24   R(11,22)                1.0919         estimate D2E/DX2                !
 ! R25   R(11,23)                1.0898         estimate D2E/DX2                !
 ! R26   R(12,25)                1.092          estimate D2E/DX2                !
 ! R27   R(12,26)                1.092          estimate D2E/DX2                !
 ! R28   R(12,27)                1.0918         estimate D2E/DX2                !
 ! R29   R(13,28)                1.0921         estimate D2E/DX2                !
 ! R30   R(13,29)                1.0906         estimate D2E/DX2                !
 ! R31   R(13,30)                1.0917         estimate D2E/DX2                !
 ! R32   R(31,36)                1.4113         estimate D2E/DX2                !
 ! R33   R(31,43)                0.9689         estimate D2E/DX2                !
 ! R34   R(32,37)                1.3366         estimate D2E/DX2                !
 ! R35   R(32,44)                0.9691         estimate D2E/DX2                !
 ! R36   R(33,37)                1.2047         estimate D2E/DX2                !
 ! R37   R(34,35)                1.4553         estimate D2E/DX2                !
 ! R38   R(34,41)                1.0172         estimate D2E/DX2                !
 ! R39   R(34,42)                1.015          estimate D2E/DX2                !
 ! R40   R(35,36)                1.5341         estimate D2E/DX2                !
 ! R41   R(35,37)                1.5201         estimate D2E/DX2                !
 ! R42   R(35,38)                1.0911         estimate D2E/DX2                !
 ! R43   R(36,39)                1.0933         estimate D2E/DX2                !
 ! R44   R(36,40)                1.0942         estimate D2E/DX2                !
 ! A1    A(2,1,7)              108.1029         estimate D2E/DX2                !
 ! A2    A(4,3,6)              110.0722         estimate D2E/DX2                !
 ! A3    A(4,3,11)             107.5451         estimate D2E/DX2                !
 ! A4    A(4,3,13)             108.779          estimate D2E/DX2                !
 ! A5    A(6,3,11)             109.2199         estimate D2E/DX2                !
 ! A6    A(6,3,13)             111.7009         estimate D2E/DX2                !
 ! A7    A(11,3,13)            109.4297         estimate D2E/DX2                !
 ! A8    A(3,4,5)              116.1167         estimate D2E/DX2                !
 ! A9    A(3,4,9)              125.6075         estimate D2E/DX2                !
 ! A10   A(5,4,9)              115.3762         estimate D2E/DX2                !
 ! A11   A(3,6,7)              113.4931         estimate D2E/DX2                !
 ! A12   A(3,6,14)             107.8197         estimate D2E/DX2                !
 ! A13   A(3,6,15)             109.7903         estimate D2E/DX2                !
 ! A14   A(7,6,14)             110.6731         estimate D2E/DX2                !
 ! A15   A(7,6,15)             107.4316         estimate D2E/DX2                !
 ! A16   A(14,6,15)            107.4776         estimate D2E/DX2                !
 ! A17   A(1,7,6)              111.1247         estimate D2E/DX2                !
 ! A18   A(1,7,8)              106.7208         estimate D2E/DX2                !
 ! A19   A(1,7,24)             109.6391         estimate D2E/DX2                !
 ! A20   A(6,7,8)              108.3073         estimate D2E/DX2                !
 ! A21   A(6,7,24)             110.535          estimate D2E/DX2                !
 ! A22   A(8,7,24)             110.4386         estimate D2E/DX2                !
 ! A23   A(7,8,9)              113.4014         estimate D2E/DX2                !
 ! A24   A(7,8,16)             110.1604         estimate D2E/DX2                !
 ! A25   A(7,8,17)             107.5048         estimate D2E/DX2                !
 ! A26   A(9,8,16)             108.3376         estimate D2E/DX2                !
 ! A27   A(9,8,17)             109.7481         estimate D2E/DX2                !
 ! A28   A(16,8,17)            107.5333         estimate D2E/DX2                !
 ! A29   A(4,9,8)              110.2322         estimate D2E/DX2                !
 ! A30   A(4,9,10)             107.45           estimate D2E/DX2                !
 ! A31   A(4,9,12)             108.8415         estimate D2E/DX2                !
 ! A32   A(8,9,10)             109.399          estimate D2E/DX2                !
 ! A33   A(8,9,12)             111.4991         estimate D2E/DX2                !
 ! A34   A(10,9,12)            109.3262         estimate D2E/DX2                !
 ! A35   A(9,10,18)            108.9164         estimate D2E/DX2                !
 ! A36   A(9,10,19)            110.4057         estimate D2E/DX2                !
 ! A37   A(9,10,20)            110.7432         estimate D2E/DX2                !
 ! A38   A(18,10,19)           108.7127         estimate D2E/DX2                !
 ! A39   A(18,10,20)           108.985          estimate D2E/DX2                !
 ! A40   A(19,10,20)           109.0379         estimate D2E/DX2                !
 ! A41   A(3,11,21)            110.4366         estimate D2E/DX2                !
 ! A42   A(3,11,22)            108.8531         estimate D2E/DX2                !
 ! A43   A(3,11,23)            111.3023         estimate D2E/DX2                !
 ! A44   A(21,11,22)           108.7358         estimate D2E/DX2                !
 ! A45   A(21,11,23)           108.9241         estimate D2E/DX2                !
 ! A46   A(22,11,23)           108.5321         estimate D2E/DX2                !
 ! A47   A(9,12,25)            110.115          estimate D2E/DX2                !
 ! A48   A(9,12,26)            109.0326         estimate D2E/DX2                !
 ! A49   A(9,12,27)            112.324          estimate D2E/DX2                !
 ! A50   A(25,12,26)           108.33           estimate D2E/DX2                !
 ! A51   A(25,12,27)           108.8731         estimate D2E/DX2                !
 ! A52   A(26,12,27)           108.0666         estimate D2E/DX2                !
 ! A53   A(3,13,28)            109.26           estimate D2E/DX2                !
 ! A54   A(3,13,29)            110.279          estimate D2E/DX2                !
 ! A55   A(3,13,30)            112.4191         estimate D2E/DX2                !
 ! A56   A(28,13,29)           108.1485         estimate D2E/DX2                !
 ! A57   A(28,13,30)           108.1138         estimate D2E/DX2                !
 ! A58   A(29,13,30)           108.5064         estimate D2E/DX2                !
 ! A59   A(36,31,43)           105.4513         estimate D2E/DX2                !
 ! A60   A(37,32,44)           108.1479         estimate D2E/DX2                !
 ! A61   A(35,34,41)           108.8302         estimate D2E/DX2                !
 ! A62   A(35,34,42)           110.0615         estimate D2E/DX2                !
 ! A63   A(41,34,42)           106.2129         estimate D2E/DX2                !
 ! A64   A(34,35,36)           108.6456         estimate D2E/DX2                !
 ! A65   A(34,35,37)           112.9734         estimate D2E/DX2                !
 ! A66   A(34,35,38)           109.5265         estimate D2E/DX2                !
 ! A67   A(36,35,37)           108.0977         estimate D2E/DX2                !
 ! A68   A(36,35,38)           108.6636         estimate D2E/DX2                !
 ! A69   A(37,35,38)           108.842          estimate D2E/DX2                !
 ! A70   A(31,36,35)           112.1842         estimate D2E/DX2                !
 ! A71   A(31,36,39)           111.7875         estimate D2E/DX2                !
 ! A72   A(31,36,40)           107.913          estimate D2E/DX2                !
 ! A73   A(35,36,39)           107.4831         estimate D2E/DX2                !
 ! A74   A(35,36,40)           108.6432         estimate D2E/DX2                !
 ! A75   A(39,36,40)           108.7445         estimate D2E/DX2                !
 ! A76   A(32,37,33)           123.0007         estimate D2E/DX2                !
 ! A77   A(32,37,35)           113.4771         estimate D2E/DX2                !
 ! A78   A(33,37,35)           123.5176         estimate D2E/DX2                !
 ! A79   L(4,5,38,20,-1)       180.0            estimate D2E/DX2                !
 ! A80   L(5,38,35,32,-1)      180.0            estimate D2E/DX2                !
 ! A81   L(4,5,38,20,-2)       180.0            estimate D2E/DX2                !
 ! A82   L(5,38,35,32,-2)      180.0            estimate D2E/DX2                !
 ! D1    D(2,1,7,6)             63.0571         estimate D2E/DX2                !
 ! D2    D(2,1,7,8)           -179.0593         estimate D2E/DX2                !
 ! D3    D(2,1,7,24)           -59.4329         estimate D2E/DX2                !
 ! D4    D(6,3,4,5)           -170.2388         estimate D2E/DX2                !
 ! D5    D(6,3,4,9)             30.0193         estimate D2E/DX2                !
 ! D6    D(11,3,4,5)           -51.3502         estimate D2E/DX2                !
 ! D7    D(11,3,4,9)           148.9079         estimate D2E/DX2                !
 ! D8    D(13,3,4,5)            67.0741         estimate D2E/DX2                !
 ! D9    D(13,3,4,9)           -92.6677         estimate D2E/DX2                !
 ! D10   D(4,3,6,7)            -44.165          estimate D2E/DX2                !
 ! D11   D(4,3,6,14)          -167.1258         estimate D2E/DX2                !
 ! D12   D(4,3,6,15)            76.0704         estimate D2E/DX2                !
 ! D13   D(11,3,6,7)          -162.0231         estimate D2E/DX2                !
 ! D14   D(11,3,6,14)           75.0161         estimate D2E/DX2                !
 ! D15   D(11,3,6,15)          -41.7876         estimate D2E/DX2                !
 ! D16   D(13,3,6,7)            76.7855         estimate D2E/DX2                !
 ! D17   D(13,3,6,14)          -46.1753         estimate D2E/DX2                !
 ! D18   D(13,3,6,15)         -162.9791         estimate D2E/DX2                !
 ! D19   D(4,3,11,21)          -55.6766         estimate D2E/DX2                !
 ! D20   D(4,3,11,22)         -174.9809         estimate D2E/DX2                !
 ! D21   D(4,3,11,23)           65.4397         estimate D2E/DX2                !
 ! D22   D(6,3,11,21)           63.7574         estimate D2E/DX2                !
 ! D23   D(6,3,11,22)          -55.547          estimate D2E/DX2                !
 ! D24   D(6,3,11,23)         -175.1264         estimate D2E/DX2                !
 ! D25   D(13,3,11,21)        -173.6809         estimate D2E/DX2                !
 ! D26   D(13,3,11,22)          67.0148         estimate D2E/DX2                !
 ! D27   D(13,3,11,23)         -52.5646         estimate D2E/DX2                !
 ! D28   D(4,3,13,28)         -175.8114         estimate D2E/DX2                !
 ! D29   D(4,3,13,29)          -57.0701         estimate D2E/DX2                !
 ! D30   D(4,3,13,30)           64.161          estimate D2E/DX2                !
 ! D31   D(6,3,13,28)           62.4888         estimate D2E/DX2                !
 ! D32   D(6,3,13,29)         -178.7699         estimate D2E/DX2                !
 ! D33   D(6,3,13,30)          -57.5388         estimate D2E/DX2                !
 ! D34   D(11,3,13,28)         -58.5808         estimate D2E/DX2                !
 ! D35   D(11,3,13,29)          60.1605         estimate D2E/DX2                !
 ! D36   D(11,3,13,30)        -178.6085         estimate D2E/DX2                !
 ! D37   D(3,4,35,34)          141.9509         estimate D2E/DX2                !
 ! D38   D(3,4,35,36)           23.4066         estimate D2E/DX2                !
 ! D39   D(3,4,35,37)          -94.0909         estimate D2E/DX2                !
 ! D40   D(9,4,35,34)          -56.2031         estimate D2E/DX2                !
 ! D41   D(9,4,35,36)         -174.7475         estimate D2E/DX2                !
 ! D42   D(9,4,35,37)           67.755          estimate D2E/DX2                !
 ! D43   D(3,4,9,8)            -30.1029         estimate D2E/DX2                !
 ! D44   D(3,4,9,10)          -149.2411         estimate D2E/DX2                !
 ! D45   D(3,4,9,12)            92.4766         estimate D2E/DX2                !
 ! D46   D(5,4,9,8)            170.024          estimate D2E/DX2                !
 ! D47   D(5,4,9,10)            50.8858         estimate D2E/DX2                !
 ! D48   D(5,4,9,12)           -67.3966         estimate D2E/DX2                !
 ! D49   D(3,6,7,1)            178.2629         estimate D2E/DX2                !
 ! D50   D(3,6,7,8)             61.3451         estimate D2E/DX2                !
 ! D51   D(3,6,7,24)           -59.7668         estimate D2E/DX2                !
 ! D52   D(14,6,7,1)           -60.3604         estimate D2E/DX2                !
 ! D53   D(14,6,7,8)          -177.2782         estimate D2E/DX2                !
 ! D54   D(14,6,7,24)           61.6099         estimate D2E/DX2                !
 ! D55   D(15,6,7,1)            56.7002         estimate D2E/DX2                !
 ! D56   D(15,6,7,8)           -60.2176         estimate D2E/DX2                !
 ! D57   D(15,6,7,24)          178.6704         estimate D2E/DX2                !
 ! D58   D(1,7,8,9)            178.9311         estimate D2E/DX2                !
 ! D59   D(1,7,8,16)            57.3251         estimate D2E/DX2                !
 ! D60   D(1,7,8,17)           -59.5662         estimate D2E/DX2                !
 ! D61   D(6,7,8,9)            -61.3487         estimate D2E/DX2                !
 ! D62   D(6,7,8,16)           177.0453         estimate D2E/DX2                !
 ! D63   D(6,7,8,17)            60.154          estimate D2E/DX2                !
 ! D64   D(24,7,8,9)            59.8229         estimate D2E/DX2                !
 ! D65   D(24,7,8,16)          -61.7831         estimate D2E/DX2                !
 ! D66   D(24,7,8,17)         -178.6744         estimate D2E/DX2                !
 ! D67   D(7,8,9,4)             44.3545         estimate D2E/DX2                !
 ! D68   D(7,8,9,10)           162.2989         estimate D2E/DX2                !
 ! D69   D(7,8,9,12)           -76.6497         estimate D2E/DX2                !
 ! D70   D(16,8,9,4)           166.9748         estimate D2E/DX2                !
 ! D71   D(16,8,9,10)          -75.0809         estimate D2E/DX2                !
 ! D72   D(16,8,9,12)           45.9705         estimate D2E/DX2                !
 ! D73   D(17,8,9,4)           -75.8832         estimate D2E/DX2                !
 ! D74   D(17,8,9,10)           42.0611         estimate D2E/DX2                !
 ! D75   D(17,8,9,12)          163.1125         estimate D2E/DX2                !
 ! D76   D(4,9,10,18)          176.3255         estimate D2E/DX2                !
 ! D77   D(4,9,10,19)           57.0288         estimate D2E/DX2                !
 ! D78   D(4,9,10,20)          -63.8384         estimate D2E/DX2                !
 ! D79   D(8,9,10,18)           56.6546         estimate D2E/DX2                !
 ! D80   D(8,9,10,19)          -62.6421         estimate D2E/DX2                !
 ! D81   D(8,9,10,20)          176.4908         estimate D2E/DX2                !
 ! D82   D(12,9,10,18)         -65.7059         estimate D2E/DX2                !
 ! D83   D(12,9,10,19)         174.9974         estimate D2E/DX2                !
 ! D84   D(12,9,10,20)          54.1303         estimate D2E/DX2                !
 ! D85   D(4,9,12,25)           57.8071         estimate D2E/DX2                !
 ! D86   D(4,9,12,26)          176.5335         estimate D2E/DX2                !
 ! D87   D(4,9,12,27)          -63.712          estimate D2E/DX2                !
 ! D88   D(8,9,12,25)          179.6196         estimate D2E/DX2                !
 ! D89   D(8,9,12,26)          -61.6541         estimate D2E/DX2                !
 ! D90   D(8,9,12,27)           58.1005         estimate D2E/DX2                !
 ! D91   D(10,9,12,25)         -59.2866         estimate D2E/DX2                !
 ! D92   D(10,9,12,26)          59.4398         estimate D2E/DX2                !
 ! D93   D(10,9,12,27)         179.1943         estimate D2E/DX2                !
 ! D94   D(43,31,36,35)         80.9531         estimate D2E/DX2                !
 ! D95   D(43,31,36,39)        -39.8702         estimate D2E/DX2                !
 ! D96   D(43,31,36,40)       -159.4019         estimate D2E/DX2                !
 ! D97   D(44,32,37,33)         -1.6304         estimate D2E/DX2                !
 ! D98   D(44,32,37,35)        177.6142         estimate D2E/DX2                !
 ! D99   D(41,34,35,36)        -70.3899         estimate D2E/DX2                !
 ! D100  D(41,34,35,37)         49.5527         estimate D2E/DX2                !
 ! D101  D(41,34,35,38)        171.0546         estimate D2E/DX2                !
 ! D102  D(42,34,35,36)        173.5964         estimate D2E/DX2                !
 ! D103  D(42,34,35,37)        -66.461          estimate D2E/DX2                !
 ! D104  D(42,34,35,38)         55.0409         estimate D2E/DX2                !
 ! D105  D(34,35,36,31)       -176.4423         estimate D2E/DX2                !
 ! D106  D(34,35,36,39)        -53.1653         estimate D2E/DX2                !
 ! D107  D(34,35,36,40)         64.3402         estimate D2E/DX2                !
 ! D108  D(37,35,36,31)         60.6263         estimate D2E/DX2                !
 ! D109  D(37,35,36,39)       -176.0967         estimate D2E/DX2                !
 ! D110  D(37,35,36,40)        -58.5912         estimate D2E/DX2                !
 ! D111  D(38,35,36,31)        -57.344          estimate D2E/DX2                !
 ! D112  D(38,35,36,39)         65.933          estimate D2E/DX2                !
 ! D113  D(38,35,36,40)       -176.5615         estimate D2E/DX2                !
 ! D114  D(34,35,37,32)        138.363          estimate D2E/DX2                !
 ! D115  D(34,35,37,33)        -42.3969         estimate D2E/DX2                !
 ! D116  D(36,35,37,32)       -101.3806         estimate D2E/DX2                !
 ! D117  D(36,35,37,33)         77.8595         estimate D2E/DX2                !
 ! D118  D(38,35,37,32)         16.4754         estimate D2E/DX2                !
 ! D119  D(38,35,37,33)       -164.2845         estimate D2E/DX2                !
 --------------------------------------------------------------------------------
 Trust Radius=3.00D-01 FncErr=1.00D-07 GrdErr=1.00D-06 EigMax=2.50D+02 EigMin=1.00D-04
 Number of steps in this run=    255 maximum allowed number of steps=    264.
 GradGradGradGradGradGradGradGradGradGradGradGradGradGradGradGradGradGrad

                          Input orientation:                          
 ---------------------------------------------------------------------
 Center     Atomic      Atomic             Coordinates (Angstroms)
 Number     Number       Type             X           Y           Z
 ---------------------------------------------------------------------
      1          8           0        4.431069    0.477950    1.688276
      2          1           0        4.470026    1.327140    2.138559
      3          6           0        1.443759    1.242828   -0.531190
      4          7           0        1.182867   -0.189486   -0.871628
      5          8           0        0.153151   -0.417415   -1.583483
      6          6           0        2.826607    1.386932    0.111553
      7          6           0        3.124401    0.320968    1.154661
      8          6           0        3.090873   -1.033102    0.474617
      9          6           0        1.729325   -1.372521   -0.137575
     10          6           0        1.896531   -2.504453   -1.152007
     11          6           0        1.409285    2.040658   -1.836042
     12          6           0        0.719479   -1.798773    0.937544
     13          6           0        0.330842    1.739626    0.400201
     14          1           0        2.888518    2.386466    0.552153
     15          1           0        3.602305    1.318269   -0.658369
     16          1           0        3.352953   -1.818968    1.187154
     17          1           0        3.857402   -1.027952   -0.307618
     18          1           0        2.356214   -3.360762   -0.654336
     19          1           0        2.543137   -2.187682   -1.972708
     20          1           0        0.931237   -2.805824   -1.556273
     21          1           0        2.120192    1.627725   -2.554182
     22          1           0        1.685768    3.075495   -1.624274
     23          1           0        0.413736    2.031883   -2.279274
     24          1           0        2.387373    0.360357    1.966464
     25          1           0       -0.243922   -2.028750    0.477760
     26          1           0        1.086780   -2.699386    1.434049
     27          1           0        0.573216   -1.028833    1.697652
     28          1           0        0.472249    2.805070    0.594165
     29          1           0       -0.643727    1.606512   -0.070804
     30          1           0        0.326480    1.217699    1.359102
     31          8           0       -2.537444    1.490252   -2.980446
     32          8           0       -2.934007   -0.855434   -0.863680
     33          8           0       -4.156793   -1.733231   -2.514784
     34          7           0       -1.679088   -1.950522   -4.001689
     35          6           0       -1.970263   -0.887436   -3.051425
     36          6           0       -2.319135    0.386230   -3.832078
     37          6           0       -3.138097   -1.214328   -2.134951
     38          1           0       -1.087298   -0.691990   -2.441020
     39          1           0       -1.504852    0.572577   -4.537369
     40          1           0       -3.239638    0.209418   -4.396526
     41          1           0       -2.543797   -2.226436   -4.460764
     42          1           0       -1.343413   -2.773481   -3.511411
     43          1           0       -1.655046    1.822454   -2.757109
     44          1           0       -3.734908   -1.063019   -0.359145
 ---------------------------------------------------------------------
                    Distance matrix (angstroms):
                    1          2          3          4          5
     1  O    0.000000
     2  H    0.961975   0.000000
     3  C    3.799354   4.036454   0.000000
     4  N    4.189200   4.708163   1.495154   0.000000
     5  O    5.459548   5.960913   2.351467   1.272401   0.000000
     6  C    2.426232   2.610202   1.531716   2.480649   3.643650
     7  C    1.420130   1.947086   2.552739   2.852361   4.107428
     8  C    2.356347   3.200236   2.984039   2.482851   3.639376
     9  C    3.749319   4.469944   2.660175   1.495668   2.342478
    10  C    4.835889   5.668492   3.825249   2.438647   2.753411
    11  C    4.898372   5.067020   1.529823   2.440267   2.771963
    12  C    4.418480   5.027959   3.454432   2.465286   2.929924
    13  C    4.479154   4.508312   1.533911   2.462716   2.935882
    14  H    2.704195   2.477907   2.137491   3.401753   4.461493
    15  H    2.626733   2.928451   2.163605   2.858756   3.970529
    16  H    2.586366   3.471458   3.996539   3.406328   4.458645
    17  H    2.565234   3.450442   3.321460   2.859068   3.965106
    18  H    4.952632   5.851913   4.694761   3.388355   3.792109
    19  H    4.906392   5.741898   3.880078   2.656219   2.999562
    20  H    5.793021   6.576945   4.207738   2.716115   2.512102
    21  H    4.965943   5.256795   2.167534   2.647985   2.999017
    22  H    5.025625   4.996774   2.147573   3.388139   3.814577
    23  H    5.856204   6.038824   2.177005   2.739984   2.559510
    24  H    2.065892   2.302548   2.812017   3.131761   4.266005
    25  H    5.440996   6.020096   3.816997   2.690626   2.646279
    26  H    4.619996   5.306185   4.419349   3.409542   3.896736
    27  H    4.141680   4.574947   3.299398   2.770808   3.363946
    28  H    4.720680   4.533393   2.156584   3.408943   3.902356
    29  H    5.488312   5.577616   2.168368   2.683910   2.649433
    30  H    4.183687   4.217642   2.195939   2.773035   3.370823
    31  O    8.448780   8.679599   4.680817   4.594491   3.581899
    32  O    7.907891   8.282317   4.866014   4.170396   3.200082
    33  O    9.813583  10.268470   6.645130   5.796126   4.601555
    34  N    8.695239   9.287481   5.656325   4.592310   3.399299
    35  C    8.081219   8.562570   4.748174   3.896265   2.623864
    36  C    8.720549   9.089913   5.078286   4.621659   3.437182
    37  C    8.647147   9.088756   5.440870   4.617036   3.430962
    38  H    6.990867   7.478856   3.714461   2.805201   1.532800
    39  H    8.602486   8.990915   5.019264   4.608929   3.529093
    40  H    9.794727  10.168361   6.159787   5.669443   4.451646
    41  H    9.683654  10.265119   6.586193   5.560493   4.338759
    42  H    8.423372   9.084785   5.725450   4.475218   3.392294
    43  H    7.655712   7.856806   3.859180   3.956854   3.108695
    44  H    8.558604   8.903501   5.671430   5.020977   4.127083
                    6          7          8          9         10
     6  C    0.000000
     7  C    1.520866   0.000000
     8  C    2.461344   1.515615   0.000000
     9  C    2.980046   2.546373   1.530947   0.000000
    10  C    4.195772   3.848556   2.497445   1.529150   0.000000
    11  C    2.495854   3.852695   4.197009   3.825834   4.622050
    12  C    3.907808   3.213112   2.534574   1.535370   2.499932
    13  C    2.537036   3.222696   3.912969   3.454044   4.782566
    14  H    1.094088   2.164472   3.426427   3.993675   5.273451
    15  H    1.095081   2.123695   2.659730   3.319583   4.215038
    16  H    3.422244   2.152352   1.092694   2.142519   2.839494
    17  H    2.658930   2.120173   1.095210   2.162488   2.595778
    18  H    4.832024   4.173454   2.689286   2.147821   1.091902
    19  H    4.147573   4.051127   2.760882   2.166677   1.091784
    20  H    4.894208   4.683584   3.454140   2.168872   1.089058
    21  H    2.768239   4.058518   4.146787   3.872240   4.369326
    22  H    2.676911   4.168880   4.822886   4.690098   5.603863
    23  H    3.457450   4.697536   4.913768   4.231739   4.903851
    24  H    2.165058   1.097172   2.159224   2.804082   4.262971
    25  H    4.607509   4.162327   3.480256   2.168635   2.732027
    26  H    4.634004   3.654107   2.777301   2.154864   2.716870
    27  H    3.664615   2.936894   2.799005   2.196080   3.471192
    28  H    2.790525   3.676796   4.647908   4.423568   5.767905
    29  H    3.482052   4.165714   4.605679   3.809261   4.951964
    30  H    2.799224   2.945214   3.672913   3.304127   4.756590
    31  O    6.192267   7.107940   7.069846   5.872197   6.241874
    32  O    6.258112   6.493222   6.174284   4.747765   5.112387
    33  O    8.087085   8.408350   7.871173   6.358271   6.252573
    34  N    6.954038   7.404128   6.605414   5.184856   4.605711
    35  C    6.179575   6.716175   6.170032   4.734214   4.601590
    36  C    6.559900   7.382676   7.059059   5.756091   5.771540
    37  C    6.884114   7.238616   6.755942   5.263681   5.289431
    38  H    5.114313   5.629691   5.106311   3.701668   3.721534
    39  H    6.406027   7.341151   6.987052   5.796680   5.700719
    40  H    7.649095   8.445657   8.083766   6.732889   6.653739
    41  H    7.924881   8.375603   7.584954   6.138298   5.544518
    42  H    6.915488   7.163044   6.211299   4.773592   4.017014
    43  H    5.338924   6.356061   6.412644   5.340767   5.823416
    44  H    7.019779   7.159410   6.876579   5.477475   5.866811
                   11         12         13         14         15
    11  C    0.000000
    12  C    4.786423   0.000000
    13  C    2.500888   3.600006   0.000000
    14  H    2.830404   4.729639   2.642574   0.000000
    15  H    2.591929   4.535810   3.464186   1.765191   0.000000
    16  H    5.273924   2.645354   4.734558   4.278388   3.648340
    17  H    4.212567   3.462825   4.538405   3.651875   2.385970
    18  H    5.609674   2.766368   5.588214   5.896575   4.842116
    19  H    4.379858   3.456377   5.093986   5.236128   3.891146
    20  H    4.878031   2.697798   4.984915   5.936016   4.994895
    21  H    1.091617   5.088717   3.455817   3.288667   2.426217
    22  H    1.091868   5.590627   2.778285   2.580349   2.773793
    23  H    1.089793   5.011519   2.696641   3.777202   3.647403
    24  H    4.270728   2.915886   2.929997   2.521218   3.046868
    25  H    4.964560   1.091985   3.812745   5.414042   5.223676
    26  H    5.767627   1.092031   4.620077   5.467165   5.181470
    27  H    4.754764   1.091771   3.067000   4.282179   4.498344
    28  H    2.714455   4.623246   1.092149   2.452621   3.684653
    29  H    2.742154   3.804085   1.090573   3.670580   4.296173
    30  H    3.472560   3.071036   1.091750   2.929372   3.848549
    31  O    4.145995   6.064312   4.440498   6.536323   6.566440
    32  O    5.310087   4.181179   4.357863   6.812951   6.891336
    33  O    6.759005   5.975022   6.379400   8.718624   8.541752
    34  N    5.491592   5.492920   6.085527   7.772384   7.053785
    35  C    4.633814   4.896644   4.910220   6.878369   6.453322
    36  C    4.541190   6.062731   5.173610   7.095215   6.782667
    37  C    5.600265   4.966155   5.214056   7.517070   7.350331
    38  H    3.750506   3.987996   3.999552   5.851760   5.404754
    39  H    4.236109   6.367544   5.395495   6.963844   6.456450
    40  H    5.614446   6.939722   6.172395   8.172103   7.874996
    41  H    6.381544   6.322467   6.900882   8.713107   8.049702
    42  H    5.793111   4.999878   6.202578   7.813248   7.024414
    43  H    3.207195   5.692286   3.730847   5.649185   5.683190
    44  H    6.186821   4.697265   4.996173   7.523243   7.719764
                   16         17         18         19         20
    16  H    0.000000
    17  H    1.764800   0.000000
    18  H    2.600327   2.795672   0.000000
    19  H    3.282755   2.417600   1.774588   0.000000
    20  H    3.790117   3.644504   1.775389   1.775877   0.000000
    21  H    5.234213   3.888132   5.343232   3.882567   4.697424
    22  H    5.885525   4.825749   6.543369   5.343924   5.929912
    23  H    5.956859   5.010873   5.957706   4.736355   4.918734
    24  H    2.507813   3.042998   4.551515   4.694022   4.955271
    25  H    3.672160   4.294098   3.133146   3.714532   2.474294
    26  H    2.443693   3.674703   2.531844   3.740162   2.996256
    27  H    2.934597   3.847985   3.761492   4.323779   3.724769
    28  H    5.480129   5.192738   6.567006   5.983727   6.026374
    29  H    5.412007   5.220790   5.832149   5.307471   4.914859
    30  H    4.290740   4.504255   5.397783   5.254631   5.005385
    31  O    7.938299   7.374240   7.272621   6.352561   5.702305
    32  O    6.682828   6.816319   5.857212   5.744905   4.384498
    33  O    8.373051   8.342441   6.966303   6.737168   5.287461
    34  N    7.229303   6.719376   5.429292   4.690436   3.677689
    35  C    6.868037   6.442818   5.530080   4.819238   3.786080
    36  C    7.888483   7.250610   6.782100   5.807234   5.092486
    37  C    7.316810   7.232627   6.081682   5.766296   4.407631
    38  H    5.843762   5.395770   4.708754   3.954298   3.053777
    39  H    7.879589   7.014717   6.742176   5.530166   5.122017
    40  H    8.874350   8.283613   7.619957   6.712784   5.878344
    41  H    8.175369   7.724010   6.307590   5.662934   4.565919
    42  H    6.711443   6.352923   4.711159   4.220905   2.999607
    43  H    7.341472   6.671724   6.883138   5.858431   5.436159
    44  H    7.293852   7.592566   6.516788   6.578929   5.122831
                   21         22         23         24         25
    21  H    0.000000
    22  H    1.774681   0.000000
    23  H    1.775080   1.770937   0.000000
    24  H    4.702536   4.556053   4.971472   0.000000
    25  H    5.305800   5.847698   4.952019   3.853282   0.000000
    26  H    5.974765   6.562117   6.051997   3.367051   1.770596
    27  H    5.246764   5.396154   5.020892   2.300712   1.776425
    28  H    3.743521   2.543075   2.976221   3.395221   4.887972
    29  H    3.715759   3.161918   2.485258   3.858877   3.698094
    30  H    4.324271   3.768236   3.729382   2.313267   3.411972
    31  O    4.679120   4.710383   3.081309   7.071237   5.440846
    32  O    5.879524   6.113348   4.641970   6.148573   3.226870
    33  O    7.120261   7.619211   5.926321   8.203097   4.934897
    34  N    5.416055   6.498861   4.817278   7.582553   4.704390
    35  C    4.827537   5.577468   3.847349   6.762040   4.091210
    36  C    4.783508   5.305261   3.547951   7.468264   5.358483
    37  C    5.991880   6.475573   4.813963   7.059182   3.983189
    38  H    3.960035   4.748780   3.114282   5.710227   3.319260
    39  H    4.264658   4.993073   3.302960   7.582499   5.788641
    40  H    5.842397   6.337145   4.599052   8.495510   6.143483
    41  H    6.343690   7.351555   5.624871   8.503951   5.451378
    42  H    5.681853   6.851842   5.262818   7.331222   4.204401
    43  H    3.785699   3.743589   2.133552   6.386785   5.223736
    44  H    6.807385   6.936251   5.520558   6.701998   3.717530
                   26         27         28         29         30
    26  H    0.000000
    27  H    1.767479   0.000000
    28  H    5.601972   3.990826   0.000000
    29  H    4.878524   3.399034   1.767520   0.000000
    30  H    3.990893   2.285257   1.768085   1.771188   0.000000
    31  O    7.083490   6.156833   4.854363   3.473571   5.206536
    32  O    4.984621   4.346390   5.208376   3.454738   4.457513
    33  O    6.634892   6.372894   7.189560   5.428495   6.619269
    34  N    6.144759   6.197166   6.954550   5.401510   6.542018
    35  C    5.722600   5.389157   5.735049   4.106528   5.399942
    36  C    6.989519   6.398907   5.764914   4.294562   5.885488
    37  C    5.726495   5.338267   6.052952   4.294150   5.488757
    38  H    4.875697   4.472067   4.886099   3.331335   4.481809
    39  H    7.285611   6.764493   5.935115   4.664843   6.207924
    40  H    7.821422   7.294528   6.739623   5.234740   6.845516
    41  H    6.939279   7.005434   7.743700   6.129723   7.346522
    42  H    5.510799   5.818213   7.160490   5.613526   6.514596
    43  H    6.747626   5.739328   4.089248   2.878477   4.608185
    44  H    5.398325   4.774046   5.794056   4.094501   4.964768
                   31         32         33         34         35
    31  O    0.000000
    32  O    3.184369   0.000000
    33  O    3.637304   2.234251   0.000000
    34  N    3.690344   3.552624   2.897779   0.000000
    35  C    2.445431   2.390827   2.405049   1.455313   0.000000
    36  C    1.411311   3.275848   3.099091   2.428752   1.534065
    37  C    2.896619   1.336632   1.204688   2.481008   1.520072
    38  H    2.675086   2.434143   3.242132   2.090407   1.091064
    39  H    2.081437   4.192575   4.054675   2.585216   2.134543
    40  H    2.034428   3.702475   2.855873   2.693799   2.150279
    41  H    4.000644   3.869228   2.575237   1.017153   2.026844
    42  H    4.459490   3.635845   3.160773   1.015043   2.040023
    43  H    0.968950   3.520213   4.354349   3.973022   2.743991
    44  H    3.850238   0.969066   2.296509   4.275767   3.223844
                   36         37         38         39         40
    36  C    0.000000
    37  C    2.472393   0.000000
    38  H    2.148260   2.138292   0.000000
    39  H    1.093260   3.410591   2.483578   0.000000
    40  H    1.094162   2.674339   3.044521   1.777977   0.000000
    41  H    2.696617   2.605180   2.924940   2.986595   2.534108
    42  H    3.322444   2.747088   2.354556   3.503535   3.643732
    43  H    1.912933   3.436360   2.597052   2.180384   2.792939
    44  H    4.020696   1.879511   3.388467   5.010577   4.262023
                   41         42         43         44
    41  H    0.000000
    42  H    1.625254   0.000000
    43  H    4.481722   4.667837   0.000000
    44  H    4.426688   4.310651   4.289757   0.000000
 Stoichiometry    C12H25N2O5(2)
 Framework group  C1[X(C12H25N2O5)]
 Deg. of freedom   126
 Full point group                 C1      NOp   1
 Largest Abelian subgroup         C1      NOp   1
 Largest concise Abelian subgroup C1      NOp   1
                         Standard orientation:                         
 ---------------------------------------------------------------------
 Center     Atomic      Atomic             Coordinates (Angstroms)
 Number     Number       Type             X           Y           Z
 ---------------------------------------------------------------------
      1          8           0        5.122005   -0.014730    0.138130
      2          1           0        5.507607    0.731652    0.606768
      3          6           0        1.558211    1.294033   -0.008827
      4          7           0        0.960849   -0.034643   -0.345378
      5          8           0       -0.308825   -0.075762   -0.417772
      6          6           0        3.077974    1.249349   -0.194500
      7          6           0        3.721325   -0.006816    0.372231
      8          6           0        3.150276   -1.205447   -0.358711
      9          6           0        1.636972   -1.359118   -0.185235
     10          6           0        1.092651   -2.286280   -1.272611
     11          6           0        0.963392    2.324099   -0.970864
     12          6           0        1.284118   -1.932334    1.194720
     13          6           0        1.173136    1.658221    1.430605
     14          1           0        3.498961    2.143961    0.273976
     15          1           0        3.322562    1.290578   -1.261120
     16          1           0        3.631113   -2.122895   -0.010767
     17          1           0        3.391081   -1.089059   -1.420762
     18          1           0        1.618649   -3.241640   -1.219115
     19          1           0        1.256032   -1.851320   -2.260594
     20          1           0        0.026711   -2.460411   -1.132978
     21          1           0        1.132016    2.020898   -2.005883
     22          1           0        1.451409    3.286365   -0.803355
     23          1           0       -0.107300    2.445757   -0.808176
     24          1           0        3.526984   -0.086468    1.449112
     25          1           0        0.200948   -2.026061    1.296654
     26          1           0        1.725419   -2.926596    1.290782
     27          1           0        1.663333   -1.313354    2.010210
     28          1           0        1.542316    2.660212    1.659752
     29          1           0        0.088293    1.662152    1.542188
     30          1           0        1.594234    0.965800    2.162143
     31          8           0       -3.035312    2.185170    0.115570
     32          8           0       -2.599151   -0.495991    1.777299
     33          8           0       -4.610319   -0.988615    0.938014
     34          7           0       -3.323909   -1.038094   -1.658103
     35          6           0       -2.927066   -0.160557   -0.567057
     36          6           0       -3.448109    1.252319   -0.859718
     37          6           0       -3.481571   -0.598997    0.778645
     38          1           0       -1.838340   -0.125297   -0.504981
     39          1           0       -3.101710    1.529719   -1.858855
     40          1           0       -4.542010    1.228446   -0.860871
     41          1           0       -4.329941   -1.181655   -1.614626
     42          1           0       -2.901626   -1.953521   -1.539851
     43          1           0       -2.128884    2.427523   -0.126333
     44          1           0       -3.041481   -0.757036    2.599059
 ---------------------------------------------------------------------
 Rotational constants (GHZ):           0.6557297           0.1990224           0.1808207
 Standard basis: 6-311G(d,p) (5D, 7F)
 There are   511 symmetry adapted cartesian basis functions of A   symmetry.
 There are   492 symmetry adapted basis functions of A   symmetry.
   492 basis functions,   808 primitive gaussians,   511 cartesian basis functions
    76 alpha electrons       75 beta electrons
       nuclear repulsion energy      1667.8959844442 Hartrees.
 NAtoms=   44 NActive=   44 NUniq=   44 SFac= 1.00D+00 NAtFMM=   60 NAOKFM=F Big=F
 Integral buffers will be    131072 words long.
 Raffenetti 2 integral format.
 Two-electron integral symmetry is turned on.
 ------------------------------------------------------------------------------
 Polarizable Continuum Model (PCM)
 =================================
 Model                : PCM.
 Atomic radii         : UFF (Universal Force Field).
 Polarization charges : Total charges.
 Charge compensation  : None.
 Solution method      : On-the-fly selection.
 Cavity type          : Scaled VdW (van der Waals Surface) (Alpha=1.100).
 Cavity algorithm     : GePol (No added spheres)
                        Default sphere list used, NSphG=   44.
                        Lebedev-Laikov grids with approx.  5.0 points / Ang**2.
                        Smoothing algorithm: York/Karplus (Gamma=1.0000).
                        Polarization charges: spherical gaussians, with
                                              point-specific exponents (IZeta= 3).
                        Self-potential: point-specific (ISelfS= 7).
                        Self-field    : sphere-specific E.n sum rule (ISelfD= 2).
 1st derivatives      : Analytical E(r).r(x)/FMM algorithm (CHGder, D1EAlg=3).
                        Cavity 1st derivative terms included.
 Solvent              : Water, Eps=  78.355300 Eps(inf)=   1.777849
 ------------------------------------------------------------------------------
 One-electron integrals computed using PRISM.
 NBasis=   492 RedAO= T EigKep=  9.07D-04  NBF=   492
 NBsUse=   492 1.00D-06 EigRej= -1.00D+00 NBFU=   492
 ExpMin= 1.03D-01 ExpMax= 8.59D+03 ExpMxC= 1.30D+03 IAcc=3 IRadAn=         5 AccDes= 0.00D+00
 Harris functional with IExCor= 1009 and IRadAn=       5 diagonalized for initial guess.
 HarFok:  IExCor= 1009 AccDes= 0.00D+00 IRadAn=         5 IDoV= 1 UseB2=F ITyADJ=14
 ICtDFT=  3500011 ScaDFX=  1.000000  1.000000  1.000000  1.000000
 FoFCou: FMM=F IPFlag=           0 FMFlag=      100000 FMFlg1=           0
         NFxFlg=           0 DoJE=T BraDBF=F KetDBF=T FulRan=T
         wScrn=  0.000000 ICntrl=       500 IOpCl=  0 I1Cent=   200000004 NGrid=           0
         NMat0=    1 NMatS0=      1 NMatT0=    0 NMatD0=    1 NMtDS0=    0 NMtDT0=    0
 Petite list used in FoFCou.
 Initial guess <Sx>= 0.0000 <Sy>= 0.0000 <Sz>= 0.5000 <S**2>= 0.7500 S= 0.5000
 Requested convergence on RMS density matrix=1.00D-08 within 128 cycles.
 Requested convergence on MAX density matrix=1.00D-06.
 Requested convergence on             energy=1.00D-06.
 No special actions if energy rises.
 Inv3:  Mode=1 IEnd=    23789568.
 Iteration    1 A*A^-1 deviation from unit magnitude is 7.22D-15 for   1501.
 Iteration    1 A*A^-1 deviation from orthogonality  is 2.63D-15 for   2409   1531.
 Iteration    1 A^-1*A deviation from unit magnitude is 5.77D-15 for   2813.
 Iteration    1 A^-1*A deviation from orthogonality  is 2.34D-15 for   2713    564.
 Error on total polarization charges =  0.01147
 SCF Done:  E(UM062X) =  -957.768513774     A.U. after   15 cycles
            NFock= 15  Conv=0.32D-08     -V/T= 2.0033
 <Sx>= 0.0000 <Sy>= 0.0000 <Sz>= 0.5000 <S**2>= 0.7547 S= 0.5024
 <L.S>= 0.000000000000E+00
 Annihilation of the first spin contaminant:
 S**2 before annihilation     0.7547,   after     0.7500

 **********************************************************************

            Population analysis using the SCF density.

 **********************************************************************

 Orbital symmetries:
 Alpha Orbitals:
       Occupied  (A) (A) (A) (A) (A) (A) (A) (A) (A) (A) (A) (A)
                 (A) (A) (A) (A) (A) (A) (A) (A) (A) (A) (A) (A)
                 (A) (A) (A) (A) (A) (A) (A) (A) (A) (A) (A) (A)
                 (A) (A) (A) (A) (A) (A) (A) (A) (A) (A) (A) (A)
                 (A) (A) (A) (A) (A) (A) (A) (A) (A) (A) (A) (A)
                 (A) (A) (A) (A) (A) (A) (A) (A) (A) (A) (A) (A)
                 (A) (A) (A) (A)
       Virtual   (A) (A) (A) (A) (A) (A) (A) (A) (A) (A) (A) (A)
                 (A) (A) (A) (A) (A) (A) (A) (A) (A) (A) (A) (A)
                 (A) (A) (A) (A) (A) (A) (A) (A) (A) (A) (A) (A)
                 (A) (A) (A) (A) (A) (A) (A) (A) (A) (A) (A) (A)
                 (A) (A) (A) (A) (A) (A) (A) (A) (A) (A) (A) (A)
                 (A) (A) (A) (A) (A) (A) (A) (A) (A) (A) (A) (A)
                 (A) (A) (A) (A) (A) (A) (A) (A) (A) (A) (A) (A)
                 (A) (A) (A) (A) (A) (A) (A) (A) (A) (A) (A) (A)
                 (A) (A) (A) (A) (A) (A) (A) (A) (A) (A) (A) (A)
                 (A) (A) (A) (A) (A) (A) (A) (A) (A) (A) (A) (A)
                 (A) (A) (A) (A) (A) (A) (A) (A) (A) (A) (A) (A)
                 (A) (A) (A) (A) (A) (A) (A) (A) (A) (A) (A) (A)
                 (A) (A) (A) (A) (A) (A) (A) (A) (A) (A) (A) (A)
                 (A) (A) (A) (A) (A) (A) (A) (A) (A) (A) (A) (A)
                 (A) (A) (A) (A) (A) (A) (A) (A) (A) (A) (A) (A)
                 (A) (A) (A) (A) (A) (A) (A) (A) (A) (A) (A) (A)
                 (A) (A) (A) (A) (A) (A) (A) (A) (A) (A) (A) (A)
                 (A) (A) (A) (A) (A) (A) (A) (A) (A) (A) (A) (A)
                 (A) (A) (A) (A) (A) (A) (A) (A) (A) (A) (A) (A)
                 (A) (A) (A) (A) (A) (A) (A) (A) (A) (A) (A) (A)
                 (A) (A) (A) (A) (A) (A) (A) (A) (A) (A) (A) (A)
                 (A) (A) (A) (A) (A) (A) (A) (A) (A) (A) (A) (A)
                 (A) (A) (A) (A) (A) (A) (A) (A) (A) (A) (A) (A)
                 (A) (A) (A) (A) (A) (A) (A) (A) (A) (A) (A) (A)
                 (A) (A) (A) (A) (A) (A) (A) (A) (A) (A) (A) (A)
                 (A) (A) (A) (A) (A) (A) (A) (A) (A) (A) (A) (A)
                 (A) (A) (A) (A) (A) (A) (A) (A) (A) (A) (A) (A)
                 (A) (A) (A) (A) (A) (A) (A) (A) (A) (A) (A) (A)
                 (A) (A) (A) (A) (A) (A) (A) (A) (A) (A) (A) (A)
                 (A) (A) (A) (A) (A) (A) (A) (A) (A) (A) (A) (A)
                 (A) (A) (A) (A) (A) (A) (A) (A) (A) (A) (A) (A)
                 (A) (A) (A) (A) (A) (A) (A) (A) (A) (A) (A) (A)
                 (A) (A) (A) (A) (A) (A) (A) (A) (A) (A) (A) (A)
                 (A) (A) (A) (A) (A) (A) (A) (A) (A) (A) (A) (A)
                 (A) (A) (A) (A) (A) (A) (A) (A)
 Beta  Orbitals:
       Occupied  (A) (A) (A) (A) (A) (A) (A) (A) (A) (A) (A) (A)
                 (A) (A) (A) (A) (A) (A) (A) (A) (A) (A) (A) (A)
                 (A) (A) (A) (A) (A) (A) (A) (A) (A) (A) (A) (A)
                 (A) (A) (A) (A) (A) (A) (A) (A) (A) (A) (A) (A)
                 (A) (A) (A) (A) (A) (A) (A) (A) (A) (A) (A) (A)
                 (A) (A) (A) (A) (A) (A) (A) (A) (A) (A) (A) (A)
                 (A) (A) (A)
       Virtual   (A) (A) (A) (A) (A) (A) (A) (A) (A) (A) (A) (A)
                 (A) (A) (A) (A) (A) (A) (A) (A) (A) (A) (A) (A)
                 (A) (A) (A) (A) (A) (A) (A) (A) (A) (A) (A) (A)
                 (A) (A) (A) (A) (A) (A) (A) (A) (A) (A) (A) (A)
                 (A) (A) (A) (A) (A) (A) (A) (A) (A) (A) (A) (A)
                 (A) (A) (A) (A) (A) (A) (A) (A) (A) (A) (A) (A)
                 (A) (A) (A) (A) (A) (A) (A) (A) (A) (A) (A) (A)
                 (A) (A) (A) (A) (A) (A) (A) (A) (A) (A) (A) (A)
                 (A) (A) (A) (A) (A) (A) (A) (A) (A) (A) (A) (A)
                 (A) (A) (A) (A) (A) (A) (A) (A) (A) (A) (A) (A)
                 (A) (A) (A) (A) (A) (A) (A) (A) (A) (A) (A) (A)
                 (A) (A) (A) (A) (A) (A) (A) (A) (A) (A) (A) (A)
                 (A) (A) (A) (A) (A) (A) (A) (A) (A) (A) (A) (A)
                 (A) (A) (A) (A) (A) (A) (A) (A) (A) (A) (A) (A)
                 (A) (A) (A) (A) (A) (A) (A) (A) (A) (A) (A) (A)
                 (A) (A) (A) (A) (A) (A) (A) (A) (A) (A) (A) (A)
                 (A) (A) (A) (A) (A) (A) (A) (A) (A) (A) (A) (A)
                 (A) (A) (A) (A) (A) (A) (A) (A) (A) (A) (A) (A)
                 (A) (A) (A) (A) (A) (A) (A) (A) (A) (A) (A) (A)
                 (A) (A) (A) (A) (A) (A) (A) (A) (A) (A) (A) (A)
                 (A) (A) (A) (A) (A) (A) (A) (A) (A) (A) (A) (A)
                 (A) (A) (A) (A) (A) (A) (A) (A) (A) (A) (A) (A)
                 (A) (A) (A) (A) (A) (A) (A) (A) (A) (A) (A) (A)
                 (A) (A) (A) (A) (A) (A) (A) (A) (A) (A) (A) (A)
                 (A) (A) (A) (A) (A) (A) (A) (A) (A) (A) (A) (A)
                 (A) (A) (A) (A) (A) (A) (A) (A) (A) (A) (A) (A)
                 (A) (A) (A) (A) (A) (A) (A) (A) (A) (A) (A) (A)
                 (A) (A) (A) (A) (A) (A) (A) (A) (A) (A) (A) (A)
                 (A) (A) (A) (A) (A) (A) (A) (A) (A) (A) (A) (A)
                 (A) (A) (A) (A) (A) (A) (A) (A) (A) (A) (A) (A)
                 (A) (A) (A) (A) (A) (A) (A) (A) (A) (A) (A) (A)
                 (A) (A) (A) (A) (A) (A) (A) (A) (A) (A) (A) (A)
                 (A) (A) (A) (A) (A) (A) (A) (A) (A) (A) (A) (A)
                 (A) (A) (A) (A) (A) (A) (A) (A) (A) (A) (A) (A)
                 (A) (A) (A) (A) (A) (A) (A) (A) (A)
 The electronic state is 2-A.
 Alpha  occ. eigenvalues --  -19.66659 -19.63102 -19.62184 -19.61938 -19.61080
 Alpha  occ. eigenvalues --  -14.84680 -14.72407 -10.66846 -10.59800 -10.59596
 Alpha  occ. eigenvalues --  -10.59387 -10.58296 -10.55052 -10.54088 -10.53979
 Alpha  occ. eigenvalues --  -10.53320 -10.53269 -10.53108 -10.52834  -1.24186
 Alpha  occ. eigenvalues --   -1.23871  -1.15088  -1.15075  -1.14221  -0.99578
 Alpha  occ. eigenvalues --   -0.98689  -0.93318  -0.86697  -0.83250  -0.82454
 Alpha  occ. eigenvalues --   -0.79552  -0.78535  -0.78487  -0.75221  -0.69666
 Alpha  occ. eigenvalues --   -0.69312  -0.67208  -0.63139  -0.60980  -0.60160
 Alpha  occ. eigenvalues --   -0.58870  -0.57859  -0.57214  -0.56673  -0.56343
 Alpha  occ. eigenvalues --   -0.54989  -0.53432  -0.53106  -0.51887  -0.51353
 Alpha  occ. eigenvalues --   -0.50423  -0.50244  -0.48965  -0.48298  -0.47794
 Alpha  occ. eigenvalues --   -0.46918  -0.46505  -0.45987  -0.44874  -0.44498
 Alpha  occ. eigenvalues --   -0.43793  -0.43186  -0.43025  -0.41876  -0.41134
 Alpha  occ. eigenvalues --   -0.40481  -0.40195  -0.40032  -0.39393  -0.38217
 Alpha  occ. eigenvalues --   -0.35959  -0.35200  -0.35035  -0.34529  -0.31275
 Alpha  occ. eigenvalues --   -0.27471
 Alpha virt. eigenvalues --    0.04597   0.05708   0.07632   0.07678   0.08338
 Alpha virt. eigenvalues --    0.08754   0.09623   0.10410   0.10651   0.11441
 Alpha virt. eigenvalues --    0.13107   0.14142   0.14564   0.15001   0.15930
 Alpha virt. eigenvalues --    0.16090   0.16422   0.16687   0.17654   0.18251
 Alpha virt. eigenvalues --    0.18493   0.19618   0.20076   0.20338   0.21337
 Alpha virt. eigenvalues --    0.21606   0.21882   0.23043   0.23222   0.23476
 Alpha virt. eigenvalues --    0.24304   0.25705   0.26008   0.27966   0.28110
 Alpha virt. eigenvalues --    0.28540   0.28998   0.29460   0.30242   0.30921
 Alpha virt. eigenvalues --    0.31935   0.32568   0.33798   0.34359   0.35131
 Alpha virt. eigenvalues --    0.35951   0.36493   0.37579   0.38655   0.40200
 Alpha virt. eigenvalues --    0.41544   0.42053   0.42590   0.43416   0.44323
 Alpha virt. eigenvalues --    0.44861   0.45834   0.46407   0.47011   0.47446
 Alpha virt. eigenvalues --    0.48423   0.48894   0.50289   0.50601   0.51300
 Alpha virt. eigenvalues --    0.51642   0.52263   0.53387   0.53867   0.54437
 Alpha virt. eigenvalues --    0.55617   0.57391   0.58089   0.59048   0.59932
 Alpha virt. eigenvalues --    0.60488   0.60837   0.61409   0.62371   0.62587
 Alpha virt. eigenvalues --    0.62764   0.63238   0.64226   0.64562   0.64645
 Alpha virt. eigenvalues --    0.65219   0.65498   0.65874   0.66201   0.67033
 Alpha virt. eigenvalues --    0.67147   0.67823   0.68020   0.68455   0.68680
 Alpha virt. eigenvalues --    0.69262   0.69398   0.69652   0.70488   0.71827
 Alpha virt. eigenvalues --    0.72828   0.73542   0.74223   0.74820   0.75410
 Alpha virt. eigenvalues --    0.76163   0.77669   0.79610   0.81708   0.83865
 Alpha virt. eigenvalues --    0.84721   0.86090   0.87797   0.88866   0.90102
 Alpha virt. eigenvalues --    0.90545   0.91735   0.93589   0.94574   0.95859
 Alpha virt. eigenvalues --    0.96893   0.98104   0.98821   0.99766   1.01169
 Alpha virt. eigenvalues --    1.01717   1.02817   1.03613   1.04668   1.05628
 Alpha virt. eigenvalues --    1.08086   1.10329   1.10696   1.12590   1.13017
 Alpha virt. eigenvalues --    1.14169   1.16020   1.17230   1.18304   1.19269
 Alpha virt. eigenvalues --    1.22018   1.24232   1.24806   1.25246   1.26737
 Alpha virt. eigenvalues --    1.30424   1.32352   1.32697   1.33966   1.34941
 Alpha virt. eigenvalues --    1.35159   1.37816   1.38361   1.39970   1.40314
 Alpha virt. eigenvalues --    1.42985   1.44093   1.45052   1.45454   1.46140
 Alpha virt. eigenvalues --    1.46222   1.47071   1.47754   1.48461   1.48868
 Alpha virt. eigenvalues --    1.49417   1.50120   1.50771   1.51307   1.51782
 Alpha virt. eigenvalues --    1.52224   1.53122   1.54047   1.54497   1.55303
 Alpha virt. eigenvalues --    1.56013   1.57276   1.57537   1.58039   1.58448
 Alpha virt. eigenvalues --    1.59088   1.59604   1.60343   1.61938   1.63377
 Alpha virt. eigenvalues --    1.64100   1.64485   1.65156   1.65916   1.66575
 Alpha virt. eigenvalues --    1.66995   1.68260   1.69286   1.69586   1.70456
 Alpha virt. eigenvalues --    1.70979   1.71622   1.72455   1.73064   1.73869
 Alpha virt. eigenvalues --    1.74534   1.75660   1.76235   1.77103   1.78157
 Alpha virt. eigenvalues --    1.79226   1.79696   1.79847   1.80650   1.81681
 Alpha virt. eigenvalues --    1.82086   1.83605   1.84767   1.85971   1.86647
 Alpha virt. eigenvalues --    1.87077   1.87785   1.88620   1.89659   1.90374
 Alpha virt. eigenvalues --    1.90837   1.91599   1.92920   1.93688   1.96569
 Alpha virt. eigenvalues --    1.97561   1.98132   1.99343   2.00080   2.02144
 Alpha virt. eigenvalues --    2.02416   2.03715   2.06043   2.06952   2.08184
 Alpha virt. eigenvalues --    2.08592   2.09291   2.09460   2.11161   2.12550
 Alpha virt. eigenvalues --    2.14249   2.15106   2.17208   2.18191   2.21148
 Alpha virt. eigenvalues --    2.21765   2.22052   2.23730   2.24673   2.25889
 Alpha virt. eigenvalues --    2.26408   2.26582   2.27571   2.30162   2.31630
 Alpha virt. eigenvalues --    2.32412   2.36956   2.37647   2.41380   2.41489
 Alpha virt. eigenvalues --    2.42345   2.45637   2.46652   2.46861   2.48195
 Alpha virt. eigenvalues --    2.48881   2.49260   2.49406   2.50385   2.51258
 Alpha virt. eigenvalues --    2.52709   2.53623   2.54166   2.55105   2.55951
 Alpha virt. eigenvalues --    2.56516   2.56978   2.57427   2.57928   2.58055
 Alpha virt. eigenvalues --    2.58493   2.59555   2.60495   2.60640   2.61048
 Alpha virt. eigenvalues --    2.63246   2.63811   2.64290   2.65343   2.66492
 Alpha virt. eigenvalues --    2.67630   2.68903   2.69423   2.70553   2.70667
 Alpha virt. eigenvalues --    2.71918   2.73826   2.73996   2.78125   2.79177
 Alpha virt. eigenvalues --    2.80239   2.81439   2.82819   2.85882   2.87329
 Alpha virt. eigenvalues --    2.87822   2.89269   2.89814   2.90579   2.92438
 Alpha virt. eigenvalues --    2.92809   2.93967   2.95201   2.96010   2.96808
 Alpha virt. eigenvalues --    2.99512   3.00714   3.01653   3.02889   3.06066
 Alpha virt. eigenvalues --    3.06824   3.07632   3.09876   3.11361   3.12856
 Alpha virt. eigenvalues --    3.15769   3.17724   3.19825   3.20636   3.22575
 Alpha virt. eigenvalues --    3.24179   3.24432   3.24499   3.25817   3.30334
 Alpha virt. eigenvalues --    3.31020   3.32178   3.33789   3.39361   3.40461
 Alpha virt. eigenvalues --    3.40530   3.42178   3.42465   3.51046   3.54582
 Alpha virt. eigenvalues --    3.57445   3.59350   3.67947   3.75784   3.77760
 Alpha virt. eigenvalues --    3.78681   3.80566   3.80775   3.81890   3.82706
 Alpha virt. eigenvalues --    3.83392   3.83983   3.84742   3.86178   3.87715
 Alpha virt. eigenvalues --    3.87828   3.88849   3.89923   3.90113   3.93552
 Alpha virt. eigenvalues --    3.95767   3.96050   4.01537   4.03007   4.08278
 Alpha virt. eigenvalues --    4.16854   4.23477   4.23775   4.28814   4.33307
 Alpha virt. eigenvalues --    4.37087   4.38431   4.38822   4.79789   4.83850
 Alpha virt. eigenvalues --    4.91718   4.92594   4.96777   5.02262   5.02940
 Alpha virt. eigenvalues --    5.05839   5.08973   5.14696   5.21656   5.38017
 Alpha virt. eigenvalues --    5.39766   5.40998   5.67583   5.74419   5.74887
 Alpha virt. eigenvalues --    5.86153   6.04577  23.77985  23.83085  23.86724
 Alpha virt. eigenvalues --   23.89033  23.91690  23.94623  23.95063  23.97417
 Alpha virt. eigenvalues --   24.00644  24.02766  24.03202  24.08027  35.54438
 Alpha virt. eigenvalues --   35.68008  49.96510  50.01063  50.02462  50.05067
 Alpha virt. eigenvalues --   50.13214
  Beta  occ. eigenvalues --  -19.66656 -19.62184 -19.62117 -19.61938 -19.61080
  Beta  occ. eigenvalues --  -14.83819 -14.72406 -10.66845 -10.59834 -10.59629
  Beta  occ. eigenvalues --  -10.59389 -10.58296 -10.55058 -10.54086 -10.53978
  Beta  occ. eigenvalues --  -10.53303 -10.53233 -10.53072 -10.52818  -1.23885
  Beta  occ. eigenvalues --   -1.21232  -1.15085  -1.15075  -1.14218  -0.99510
  Beta  occ. eigenvalues --   -0.97463  -0.93118  -0.85971  -0.83026  -0.81201
  Beta  occ. eigenvalues --   -0.79300  -0.78470  -0.78394  -0.75210  -0.69409
  Beta  occ. eigenvalues --   -0.68712  -0.67112  -0.62490  -0.60882  -0.59924
  Beta  occ. eigenvalues --   -0.58623  -0.57718  -0.56380  -0.56324  -0.55009
  Beta  occ. eigenvalues --   -0.53447  -0.53209  -0.52506  -0.51679  -0.51298
  Beta  occ. eigenvalues --   -0.50355  -0.50062  -0.48374  -0.47869  -0.47358
  Beta  occ. eigenvalues --   -0.46901  -0.46286  -0.45802  -0.44099  -0.43973
  Beta  occ. eigenvalues --   -0.43437  -0.42972  -0.42517  -0.41672  -0.40750
  Beta  occ. eigenvalues --   -0.40092  -0.39935  -0.39236  -0.38497  -0.37468
  Beta  occ. eigenvalues --   -0.35887  -0.35052  -0.34828  -0.33359  -0.31257
  Beta virt. eigenvalues --   -0.02429   0.04614   0.05740   0.07692   0.07704
  Beta virt. eigenvalues --    0.08346   0.08781   0.09634   0.10468   0.10744
  Beta virt. eigenvalues --    0.11485   0.13127   0.14141   0.14613   0.15054
  Beta virt. eigenvalues --    0.15930   0.16105   0.16454   0.16818   0.17774
  Beta virt. eigenvalues --    0.18304   0.18632   0.19840   0.20185   0.20501
  Beta virt. eigenvalues --    0.21470   0.21701   0.21936   0.23176   0.23298
  Beta virt. eigenvalues --    0.23754   0.24785   0.25843   0.26161   0.28061
  Beta virt. eigenvalues --    0.28211   0.28647   0.29256   0.29573   0.30360
  Beta virt. eigenvalues --    0.31092   0.32042   0.32701   0.33896   0.34434
  Beta virt. eigenvalues --    0.35232   0.36461   0.36666   0.37798   0.38826
  Beta virt. eigenvalues --    0.40278   0.41885   0.42241   0.42645   0.43525
  Beta virt. eigenvalues --    0.44498   0.44958   0.45999   0.46463   0.47046
  Beta virt. eigenvalues --    0.47467   0.48497   0.49001   0.50400   0.50683
  Beta virt. eigenvalues --    0.51380   0.51725   0.52470   0.53547   0.54041
  Beta virt. eigenvalues --    0.54478   0.55824   0.57565   0.58216   0.59181
  Beta virt. eigenvalues --    0.60009   0.60585   0.61041   0.61474   0.62469
  Beta virt. eigenvalues --    0.62629   0.62811   0.63284   0.64259   0.64672
  Beta virt. eigenvalues --    0.64742   0.65296   0.65565   0.65901   0.66297
  Beta virt. eigenvalues --    0.67094   0.67234   0.67896   0.68041   0.68500
  Beta virt. eigenvalues --    0.68771   0.69367   0.69444   0.69694   0.70545
  Beta virt. eigenvalues --    0.71965   0.72909   0.73737   0.74269   0.74931
  Beta virt. eigenvalues --    0.75514   0.76337   0.77734   0.79743   0.81737
  Beta virt. eigenvalues --    0.83969   0.85477   0.86892   0.88061   0.88998
  Beta virt. eigenvalues --    0.90163   0.90704   0.92375   0.93745   0.94795
  Beta virt. eigenvalues --    0.96074   0.96934   0.98185   0.98985   0.99871
  Beta virt. eigenvalues --    1.01376   1.01801   1.02931   1.03967   1.04827
  Beta virt. eigenvalues --    1.05681   1.08236   1.10501   1.11076   1.12896
  Beta virt. eigenvalues --    1.13525   1.14372   1.16235   1.17320   1.18482
  Beta virt. eigenvalues --    1.19383   1.22370   1.24334   1.24899   1.25344
  Beta virt. eigenvalues --    1.26848   1.30523   1.32431   1.32835   1.34163
  Beta virt. eigenvalues --    1.35169   1.35553   1.37913   1.38444   1.40051
  Beta virt. eigenvalues --    1.40402   1.43071   1.44160   1.45110   1.45493
  Beta virt. eigenvalues --    1.46227   1.46304   1.47172   1.47803   1.48562
  Beta virt. eigenvalues --    1.48924   1.49446   1.50163   1.50800   1.51351
  Beta virt. eigenvalues --    1.51840   1.52274   1.53211   1.54131   1.54538
  Beta virt. eigenvalues --    1.55409   1.56060   1.57324   1.57561   1.58093
  Beta virt. eigenvalues --    1.58508   1.59150   1.59647   1.60402   1.62044
  Beta virt. eigenvalues --    1.63397   1.64170   1.64538   1.65170   1.65958
  Beta virt. eigenvalues --    1.66620   1.67041   1.68459   1.69367   1.69625
  Beta virt. eigenvalues --    1.70543   1.71107   1.71712   1.72536   1.73104
  Beta virt. eigenvalues --    1.73909   1.74592   1.75695   1.76267   1.77145
  Beta virt. eigenvalues --    1.78247   1.79432   1.79768   1.79923   1.80677
  Beta virt. eigenvalues --    1.81698   1.82295   1.83665   1.84822   1.86027
  Beta virt. eigenvalues --    1.86856   1.87290   1.88216   1.88961   1.89800
  Beta virt. eigenvalues --    1.90496   1.91007   1.91669   1.92977   1.93761
  Beta virt. eigenvalues --    1.96599   1.97648   1.98190   1.99372   2.00130
  Beta virt. eigenvalues --    2.02148   2.02474   2.04004   2.06138   2.06971
  Beta virt. eigenvalues --    2.08237   2.09033   2.09445   2.10036   2.11266
  Beta virt. eigenvalues --    2.12601   2.14328   2.15147   2.17277   2.18242
  Beta virt. eigenvalues --    2.21291   2.21798   2.22267   2.23998   2.24850
  Beta virt. eigenvalues --    2.26013   2.26521   2.26777   2.27632   2.30368
  Beta virt. eigenvalues --    2.31830   2.32621   2.37327   2.37721   2.41448
  Beta virt. eigenvalues --    2.41641   2.42482   2.45783   2.46786   2.47068
  Beta virt. eigenvalues --    2.48253   2.48948   2.49281   2.49433   2.50449
  Beta virt. eigenvalues --    2.51309   2.52780   2.53700   2.54318   2.55185
  Beta virt. eigenvalues --    2.56040   2.56562   2.57033   2.57481   2.57999
  Beta virt. eigenvalues --    2.58111   2.58573   2.59693   2.60572   2.60710
  Beta virt. eigenvalues --    2.61133   2.63279   2.63852   2.64372   2.65421
  Beta virt. eigenvalues --    2.66561   2.67707   2.68947   2.69496   2.70612
  Beta virt. eigenvalues --    2.70734   2.72030   2.73934   2.74049   2.78262
  Beta virt. eigenvalues --    2.79419   2.80328   2.81550   2.82861   2.86062
  Beta virt. eigenvalues --    2.87477   2.88112   2.89402   2.90167   2.91132
  Beta virt. eigenvalues --    2.92822   2.92826   2.95335   2.95898   2.96088
  Beta virt. eigenvalues --    2.96873   2.99597   3.00782   3.01866   3.03450
  Beta virt. eigenvalues --    3.06458   3.06910   3.08084   3.10300   3.11371
  Beta virt. eigenvalues --    3.12862   3.15783   3.17884   3.19833   3.20706
  Beta virt. eigenvalues --    3.23219   3.24245   3.24501   3.24589   3.25882
  Beta virt. eigenvalues --    3.30493   3.31123   3.32227   3.35376   3.39414
  Beta virt. eigenvalues --    3.40564   3.40670   3.42231   3.42480   3.51645
  Beta virt. eigenvalues --    3.54846   3.57620   3.59356   3.67962   3.75901
  Beta virt. eigenvalues --    3.77801   3.78760   3.80585   3.80928   3.81934
  Beta virt. eigenvalues --    3.82759   3.83459   3.84156   3.84798   3.86191
  Beta virt. eigenvalues --    3.87764   3.87909   3.88854   3.89949   3.90346
  Beta virt. eigenvalues --    3.93779   3.95776   3.96300   4.02887   4.04425
  Beta virt. eigenvalues --    4.08290   4.16885   4.23509   4.23894   4.28812
  Beta virt. eigenvalues --    4.33300   4.37246   4.38746   4.39178   4.79964
  Beta virt. eigenvalues --    4.84338   4.92146   4.92848   4.96904   5.02396
  Beta virt. eigenvalues --    5.02944   5.06842   5.12097   5.14822   5.22729
  Beta virt. eigenvalues --    5.38043   5.39771   5.41001   5.67587   5.74419
  Beta virt. eigenvalues --    5.74889   5.86154   6.04797  23.77950  23.83084
  Beta virt. eigenvalues --   23.86678  23.89024  23.91690  23.94625  23.95062
  Beta virt. eigenvalues --   23.97430  24.00655  24.02779  24.03215  24.08030
  Beta virt. eigenvalues --   35.53834  35.68008  49.96462  50.01057  50.01792
  Beta virt. eigenvalues --   50.04983  50.13213
          Condensed to atoms (all electrons):
               1          2          3          4          5          6
     1  O    7.993591   0.320594   0.005829   0.000026   0.000000  -0.048541
     2  H    0.320594   0.434497  -0.000266   0.000023  -0.000001  -0.001784
     3  C    0.005829  -0.000266   5.583615   0.194453  -0.083059   0.183423
     4  N    0.000026   0.000023   0.194453   6.904041   0.163512  -0.038553
     5  O    0.000000  -0.000001  -0.083059   0.163512   8.371280   0.006451
     6  C   -0.048541  -0.001784   0.183423  -0.038553   0.006451   5.365647
     7  C    0.252999  -0.040236  -0.047164  -0.009682   0.000129   0.306305
     8  C   -0.055939   0.010182   0.006866  -0.032526   0.006301  -0.104274
     9  C    0.003766  -0.000737  -0.097964   0.187598  -0.083873   0.014230
    10  C   -0.000097   0.000027   0.007415  -0.071254   0.001763  -0.002876
    11  C   -0.000136  -0.000002   0.322803  -0.072262   0.004244  -0.066843
    12  C   -0.000115   0.000006  -0.001664  -0.076238  -0.003698   0.001233
    13  C   -0.000051  -0.000008   0.305309  -0.076669  -0.003287  -0.087453
    14  H   -0.000421   0.004755  -0.027992   0.004874  -0.000145   0.404020
    15  H    0.007941  -0.001112  -0.033201  -0.001060  -0.000271   0.404653
    16  H    0.004656  -0.000233  -0.001351   0.004622  -0.000137   0.011092
    17  H    0.005989  -0.000558   0.002937  -0.000847  -0.000282  -0.012499
    18  H   -0.000016   0.000001  -0.000110   0.006145   0.000402  -0.000034
    19  H   -0.000026   0.000000  -0.000072   0.001273  -0.000594   0.000273
    20  H    0.000004  -0.000001   0.000596  -0.007668   0.010571  -0.000120
    21  H   -0.000031   0.000000  -0.035239   0.001465  -0.000579  -0.007705
    22  H   -0.000019   0.000002  -0.042908   0.006090   0.000425  -0.003989
    23  H    0.000006  -0.000001  -0.032392  -0.008510   0.008219   0.008299
    24  H   -0.030212  -0.005335   0.004802  -0.001622  -0.000085  -0.060613
    25  H    0.000003  -0.000002   0.000155  -0.007873   0.010700  -0.000183
    26  H   -0.000035   0.000004  -0.000209   0.006447  -0.000097  -0.000081
    27  H   -0.000144   0.000021   0.001079  -0.001973  -0.000401  -0.001337
    28  H   -0.000020   0.000008  -0.036918   0.006457  -0.000098  -0.005565
    29  H    0.000005  -0.000001  -0.034283  -0.008872   0.010954   0.008635
    30  H   -0.000139  -0.000021  -0.028955  -0.002154  -0.000373  -0.006411
    31  O    0.000000   0.000000   0.000093  -0.000036  -0.000716  -0.000001
    32  O    0.000000   0.000000  -0.000042  -0.000072   0.000202   0.000000
    33  O    0.000000   0.000000   0.000000   0.000000  -0.000008   0.000000
    34  N    0.000000   0.000000   0.000004  -0.000080   0.000193   0.000000
    35  C    0.000000   0.000000  -0.000531   0.006866  -0.060968   0.000005
    36  C    0.000000   0.000000   0.000035  -0.000101   0.001726   0.000000
    37  C    0.000000   0.000000  -0.000005  -0.000066  -0.000326   0.000000
    38  H    0.000000   0.000000   0.000453  -0.009505   0.015385  -0.000007
    39  H    0.000000   0.000000  -0.000019  -0.000063   0.000817   0.000000
    40  H    0.000000   0.000000  -0.000001   0.000009  -0.000194   0.000000
    41  H    0.000000   0.000000  -0.000001   0.000016  -0.000305   0.000000
    42  H    0.000000   0.000000   0.000003  -0.000046   0.000953   0.000000
    43  H    0.000000   0.000000  -0.000191   0.000203  -0.000372   0.000032
    44  H    0.000000   0.000000   0.000001  -0.000001  -0.000048   0.000000
               7          8          9         10         11         12
     1  O    0.252999  -0.055939   0.003766  -0.000097  -0.000136  -0.000115
     2  H   -0.040236   0.010182  -0.000737   0.000027  -0.000002   0.000006
     3  C   -0.047164   0.006866  -0.097964   0.007415   0.322803  -0.001664
     4  N   -0.009682  -0.032526   0.187598  -0.071254  -0.072262  -0.076238
     5  O    0.000129   0.006301  -0.083873   0.001763   0.004244  -0.003698
     6  C    0.306305  -0.104274   0.014230  -0.002876  -0.066843   0.001233
     7  C    4.998694   0.288354  -0.046709   0.009075   0.008558  -0.008053
     8  C    0.288354   5.367356   0.194497  -0.071874  -0.003128  -0.085548
     9  C   -0.046709   0.194497   5.567678   0.332468   0.008152   0.303452
    10  C    0.009075  -0.071874   0.332468   5.012638  -0.000098  -0.090366
    11  C    0.008558  -0.003128   0.008152  -0.000098   5.016235  -0.000703
    12  C   -0.008053  -0.085548   0.303452  -0.090366  -0.000703   5.066546
    13  C   -0.007837   0.002016  -0.002328  -0.000680  -0.089524   0.001124
    14  H   -0.032400   0.009928  -0.001043   0.000075  -0.005955   0.000023
    15  H   -0.045227  -0.012379   0.002716  -0.000515  -0.007670   0.000251
    16  H   -0.031851   0.402447  -0.028411  -0.005320   0.000103  -0.005294
    17  H   -0.043608   0.406276  -0.035067  -0.007994  -0.000521   0.008431
    18  H    0.000192  -0.004339  -0.042543   0.410442   0.000017  -0.004404
    19  H   -0.000408  -0.008327  -0.035443   0.402259  -0.000108   0.009089
    20  H   -0.000458   0.009300  -0.033792   0.405323  -0.000022  -0.007683
    21  H   -0.000369   0.000282  -0.000048  -0.000120   0.403711   0.000060
    22  H    0.000235  -0.000019  -0.000087   0.000017   0.413063   0.000015
    23  H   -0.000449  -0.000086   0.000319   0.000012   0.386634  -0.000054
    24  H    0.421436  -0.060616   0.005117  -0.000203  -0.000125   0.002263
[...]
 48,0.00000305,0.00000452,-0.00000678,-0.00000395,-0.00000196,-0.000000
 72,-0.00000511,-0.00001990,-0.00001488,-0.00000168,-0.00000394,-0.0000
 0215,0.00000216,-0.00000124,0.00000287,0.00000138,0.00000153,-0.000005
 48,0.00000179,-0.00000327,-0.00000208,0.00000278,-0.00000022,0.0000011
 8,-0.00000542,0.00000075,-0.00000043,0.00000049,-0.00000164,0.00000121
 ,-0.00000560,-0.00000256,0.00000336,-0.00000131,0.00000231,0.00000072,
 0.00000011,0.00000149,-0.00000066,-0.00000072,0.00000091,-0.00000040,-
 0.00000115,0.00000021,0.00000375,-0.00000284,0.00000239,-0.00000186,-0
 .00000089,-0.00000098,0.00000091,-0.00000062,-0.00000144,0.00000038,0.
 00000212,-0.00000029,0.00000020,0.00000241,0.00000095,0.00000095,-0.00
 000456,-0.00000766,0.00000061,-0.00000115,0.00000052,0.00000105,0.0000
 0093,0.00000031,0.00000156,-0.00000089,0.00000286,-0.00000136,0.000000
 10,-0.00000038,-0.00000044,0.00000149,0.00000088,-0.00000020,0.0000017
 7,-0.00000210,-0.00000462,0.00000082,0.00000018,0.00000193,0.00025358,
 -0.00008973,0.00034219,-0.00039735,0.00064547,-0.00112135,0.00016853,0
 .00031921,0.00005953,-0.35947547,0.10594925,-0.14379621,-0.00193812,-0
 .00112372,0.00249393,-0.00026592,-0.00020646,-0.00052959,0.00083015,-0
 .00121768,0.00291310,0.00105733,-0.00080319,0.00048283,0.00002455,0.00
 005183,0.00000004,0.00001722,-0.00050785,-0.00037625,0.36490845,-0.000
 00564,-0.00000228,-0.00000249,0.00000043,0.00000030,0.00000042,-0.0000
 0282,0.00002660,-0.00000786,-0.00000589,-0.00002512,0.00000313,-0.0000
 5373,-0.00004758,-0.00009275,0.00000471,-0.00000848,-0.00000040,0.0000
 0398,0.00000298,0.00000501,0.00000293,0.00000475,-0.00000295,0.0000123
 7,-0.00002136,0.00000290,-0.00000156,0.00000089,-0.00000612,-0.0000024
 1,-0.00000514,-0.00000185,-0.00000689,0.00000830,-0.00000025,-0.000006
 75,-0.00000964,0.00000505,-0.00000376,-0.00000216,-0.00000148,-0.00000
 022,0.00000085,0.00000064,-0.00000293,-0.00000023,-0.00000115,-0.00000
 019,-0.00000055,0.00000032,-0.00000158,0.00000221,-0.00000019,0.000001
 16,-0.00000094,0.00000047,-0.00000126,-0.00000302,-0.00000196,0.000002
 08,0.00000208,0.00000014,-0.00000009,-0.00000339,0.00000096,-0.0000015
 9,0.00000758,0.00000406,0.00000070,-0.00000005,-0.00000050,-0.00000075
 ,-0.00000054,0.00000313,0.00000200,0.00000119,-0.00000389,-0.00000025,
 -0.00000101,-0.00000029,0.00000245,-0.00000346,-0.00000328,-0.00000004
 ,0.00000240,-0.00000070,0.00000028,0.00000098,-0.00000027,0.00066241,-
 0.00057494,0.00026250,0.00019369,0.00061528,-0.00081104,0.00033079,-0.
 00059535,-0.00063191,0.07035157,-0.06599510,0.00628825,-0.00979112,0.0
 0252963,0.00121310,-0.00212638,0.00180812,-0.00122775,0.00086156,-0.00
 049904,0.00035622,-0.00020707,0.00020957,-0.00177379,0.00016440,-0.000
 02500,-0.00003297,0.00057346,-0.00090511,-0.00015325,-0.09889606,0.072
 99511,-0.00000297,-0.00000093,-0.00000160,0.00000011,-0.00000061,0.000
 00039,-0.00000920,0.00003204,-0.00001703,-0.00001063,-0.00004486,-0.00
 001508,-0.00008893,-0.00009854,-0.00014236,0.00000346,-0.00001340,0.00
 000032,0.00000493,0.00000226,0.00000536,0.00000325,0.00000653,-0.00000
 497,0.00001202,-0.00002534,0.00000566,-0.00000359,0.00000043,-0.000007
 08,-0.00001616,0.00000236,-0.00000917,-0.00000973,0.00000691,-0.000000
 49,-0.00001254,-0.00001080,0.00000662,-0.00000510,-0.00000105,-0.00000
 113,-0.00000048,0.00000071,0.00000013,-0.00000356,0.00000017,-0.000001
 44,-0.00000064,-0.00000037,0.00000153,-0.00000328,0.00000309,-0.000000
 74,-0.00000037,-0.00000112,0.00000016,-0.00000324,-0.00000078,-0.00000
 306,0.00000125,0.00000012,-0.00000097,0.00000602,-0.00000146,0.0000048
 4,-0.00000921,-0.00001529,-0.00000332,-0.00000009,0.00000008,0.0000001
 1,-0.00000210,-0.00000075,0.00000057,0.00000131,0.00000229,-0.00000473
 ,-0.00000021,-0.00000089,-0.00000060,0.00000404,-0.00000205,-0.0000030
 9,0.00000243,-0.00000074,-0.00000831,0.00000094,0.00000105,0.00000106,
 0.00063385,0.00007485,0.00051215,0.00060845,-0.00119462,0.00228921,0.0
 0060407,-0.00094792,0.00328200,-0.10368207,0.01067695,-0.07974339,-0.0
 3868748,0.00988372,-0.02175494,-0.00026024,0.00086285,0.00016477,-0.00
 406305,0.00311724,-0.00347628,0.00105166,-0.00272987,-0.00590080,0.000
 19170,0.00009350,0.00005471,0.00011318,-0.00105358,0.00015426,0.138526
 62,-0.01889689,0.10338570,-0.00001135,0.00000026,-0.00000514,0.0000013
 3,0.00000027,0.00000101,0.00000677,0.00001112,0.00000329,-0.00000294,0
 .00004034,0.00001756,-0.00013983,0.00002474,-0.00005078,0.00000638,0.0
 0000428,-0.00000968,0.00000526,-0.00000274,0.00000905,0.00000283,0.000
 00981,-0.00000792,0.00000750,-0.00003474,0.00000019,-0.00000420,0.0000
 0157,-0.00000916,0.00003436,-0.00002479,-0.00000153,-0.00000911,0.0000
 1153,-0.00000010,0.00000534,-0.00000523,-0.00000037,-0.00000256,-0.000
 00161,-0.00000086,-0.00000100,0.00000082,0.00000111,-0.00000503,0.0000
 0034,-0.00000175,-0.00000144,-0.00000079,0.00000149,-0.00000115,0.0000
 0399,0.00000167,-0.00000320,-0.00000174,0.00000111,0.00000017,0.000002
 57,-0.00000471,-0.00000496,0.00000234,-0.00000025,-0.00001526,-0.00000
 497,-0.00000416,0.00002024,0.00005643,0.00001247,0.00000050,0.00000065
 ,0.,-0.00000024,-0.00000202,0.00000308,0.00000193,0.00000255,-0.000005
 47,-0.00000024,-0.00000100,0.00000130,-0.00000084,-0.00000441,-0.00000
 307,-0.00000176,0.00000431,0.00001839,-0.00000421,-0.00000052,-0.00000
 398,0.00043382,-0.00146230,-0.00121919,0.00043270,0.00034537,-0.000805
 39,0.00019097,-0.00055422,-0.00028436,-0.03473135,0.02115824,-0.017974
 39,-0.00251153,-0.00320773,0.00455071,0.00031801,0.00025357,-0.0018739
 2,-0.00068790,0.00120768,0.00100189,0.00013531,-0.00057567,-0.00015492
 ,0.00011094,0.00045204,0.00005940,0.00011272,-0.00023532,0.00031228,-0
 .00505215,0.03802678,0.00504856,0.04104309,-0.00000306,0.00000155,-0.0
 0000047,0.00000025,-0.00000110,-0.00000014,0.00000614,-0.00000402,0.00
 000075,-0.00000375,0.00002383,0.00000572,-0.00003061,0.00003282,0.0000
 1296,-0.00000112,0.00000189,-0.00000610,0.00000237,-0.00000334,0.00000
 491,0.00000121,0.00000260,-0.00000727,0.00000071,-0.00000685,-0.000006
 55,0.00000299,-0.00000095,-0.00000092,0.00000906,-0.00000495,-0.000001
 34,-0.00000134,-0.00000039,0.00000094,0.00000346,0.00000153,0.00000008
 ,-0.00000075,0.00000197,0.00000110,-0.00000039,0.00000130,-0.00000017,
 -0.00000150,0.00000113,-0.00000037,-0.00000142,0.00000005,0.00000393,-
 0.00000246,0.00000280,-0.00000067,-0.00000229,-0.00000077,0.00000158,-
 0.00000113,0.00000034,0.00000073,-0.00000329,-0.00000041,-0.00000048,-
 0.00000652,-0.00000007,-0.00000142,0.00000691,0.00000932,-0.00000015,-
 0.00000097,0.00000089,0.00000078,0.00000016,-0.00000027,0.00000049,-0.
 00000056,0.00000323,-0.00000162,0.00000012,-0.00000023,0.00000016,-0.0
 0000077,-0.00000010,-0.00000014,-0.00000135,-0.00000104,0.00000658,-0.
 00000140,-0.00000092,0.00000012,-0.00006567,-0.00056162,-0.00018625,-0
 .00008594,-0.00032534,0.00014504,0.00019543,-0.00014280,0.00000220,0.0
 6215731,-0.42843504,-0.05430930,-0.00252260,-0.00633547,0.00423191,-0.
 00008845,0.00108368,-0.00250854,0.00032545,0.00119429,0.00059248,-0.00
 027668,0.00072592,0.00025362,-0.00004417,0.00024127,0.00016562,-0.0000
 5023,0.00038532,0.00001939,-0.00413701,-0.00967364,0.00002629,-0.05554
 027,0.44201134,-0.00000501,0.00000103,-0.00000288,0.00000061,-0.000000
 04,0.00000069,0.00000619,-0.00000145,0.00000663,0.00000564,0.00003922,
 0.00001136,-0.00006117,0.00004642,0.00000598,0.00000166,0.00000561,-0.
 00000476,0.00000209,-0.00000245,0.00000398,0.00000013,0.00000478,-0.00
 000337,0.00000170,-0.00001503,-0.00000162,-0.00000539,-0.00000095,-0.0
 0000265,0.00001709,-0.00001318,0.00000971,-0.00000483,0.00000441,-0.00
 000081,0.00001000,0.00000192,-0.00000385,-0.00000015,-0.00000061,-0.00
 000016,-0.00000030,0.00000038,0.00000038,-0.00000218,0.00000028,-0.000
 00071,-0.00000020,-0.00000025,0.00000051,0.00000030,0.00000170,0.00000
 087,-0.00000023,-0.00000017,0.00000047,0.00000036,0.00000305,-0.000000
 51,-0.00000827,0.00000003,-0.00000172,-0.00001057,-0.00000248,-0.00000
 164,0.00002480,0.00003264,-0.00002215,0.00000029,0.00000026,-0.0000001
 5,0.00000007,-0.00000122,0.00000034,0.00000070,0.00000105,-0.00000218,
 0.00000014,-0.00000026,0.00000075,-0.00000213,-0.00000205,-0.00000106,
 -0.00000172,-0.00000060,0.00001908,-0.00000380,-0.00000090,-0.00000285
 ,-0.00042123,-0.00267037,-0.00126451,-0.00027079,-0.00016396,0.0003596
 7,0.00023200,0.00022108,0.00062582,-0.01676384,-0.02430136,-0.04739886
 ,0.00553185,-0.04083159,-0.00927382,0.00035562,0.00192428,-0.00578348,
 -0.00044170,-0.00145832,-0.00033464,-0.00041551,0.00055864,0.00139277,
 -0.00021218,-0.00004408,0.00009619,0.00027356,0.00005319,0.00001206,0.
 00083252,0.01525507,0.00130140,0.01113219,0.05149497,0.05998970,0.0006
 8535,0.00013370,0.00037507,-0.00006415,-0.00001637,-0.00008687,-0.0014
 1085,-0.00209733,-0.00021992,-0.00325126,-0.00473263,-0.00324385,0.003
 39630,0.00270231,0.00112449,-0.00044121,0.00035449,0.00029557,-0.00041
 158,-0.00010764,-0.00063991,-0.00024634,-0.00075761,0.00064365,-0.0004
 3510,0.00277347,0.00008184,0.00025591,0.00004382,0.00067861,-0.0007965
 3,0.00070893,0.00041404,0.00089848,-0.00088072,0.00006819,0.00022240,0
 .00077929,-0.00033537,0.00032239,0.00017998,0.00012944,0.00005781,-0.0
 0007317,-0.00004687,0.00043359,-0.00000029,0.00016080,0.00002905,0.000
 04280,-0.00009604,0.00012373,-0.00031543,-0.00002936,-0.00002668,0.000
 07745,-0.00004963,0.00008487,0.00017280,0.00000269,0.00011076,-0.00009
 536,0.00001335,0.00057053,0.00037444,-0.00003744,-0.00028396,-0.002285
 99,0.00085588,-0.00004757,-0.00000921,0.00003160,0.00007000,0.00013981
 ,-0.00023621,-0.00018722,-0.00020059,0.00045986,0.00001134,0.00010838,
 0.00001009,-0.00007139,0.00035548,0.00035823,0.00064738,-0.00049818,-0
 .00061310,0.00014719,-0.00000016,0.00020074,-0.29952623,0.15027613,-0.
 17796687,0.00074571,0.00104289,0.00001514,0.00122121,-0.00000669,0.000
 16204,-0.00024094,0.00132544,0.00083083,0.00042646,-0.00010651,0.00106
 405,0.00551082,-0.00377469,-0.00302531,-0.00307027,-0.00124528,-0.0008
 5116,-0.00000572,0.00032312,0.00014661,-0.00014865,0.00012367,0.002509
 05,0.00156610,0.00045753,0.00328513,-0.00006364,-0.00001669,-0.0001177
 6,0.00030970,0.00013010,0.00026702,0.29296226,-0.00009105,-0.00014400,
 -0.00004156,-0.00000522,-0.00000594,0.00000773,-0.00005276,0.00191004,
 -0.00070452,-0.00191691,0.00387949,0.00081187,0.00076500,-0.00858089,0
 .00023797,0.00021205,-0.00067071,0.00011444,0.00020167,0.00028497,0.00
 018994,0.00012314,0.00048795,-0.00031824,0.00013020,-0.00170957,-0.000
 13668,-0.00011305,-0.00008401,-0.00028247,-0.00111681,0.00019932,-0.00
 078835,-0.00044609,0.00051091,-0.00001484,-0.00107678,-0.00080365,0.00
 048389,-0.00020946,-0.00008386,-0.00005972,0.00001293,0.00003235,0.000
 00939,-0.00023297,-0.00004016,-0.00008735,-0.00001113,-0.00003092,0.00
 003817,-0.00004428,0.00015026,0.00000885,0.00001340,-0.00003656,0.0000
 2073,-0.00002477,-0.00007671,0.00000032,0.00052039,0.00005227,0.000014
 03,0.00064251,-0.00007713,0.00022292,-0.00146717,-0.00208720,0.0009718
 6,0.00001070,-0.00001121,-0.00001438,-0.00003780,-0.00010695,0.0001443
 5,0.00010066,0.00008060,-0.00025219,-0.00000507,-0.00004216,-0.0000399
 4,0.00031016,-0.00010403,-0.00016608,0.00013399,-0.00008999,-0.0011050
 8,0.00028799,0.00013310,0.00014638,0.16048443,-0.10080097,0.09019309,0
 .00087076,0.00030234,0.00054314,0.00086728,-0.00020685,0.00036335,0.00
 057328,-0.00093290,0.00018132,-0.00219542,0.00169571,-0.00241437,-0.01
 204584,0.00684912,-0.00852530,-0.00174963,0.00018635,-0.00141867,0.000
 64608,-0.00081578,-0.00015660,0.00137121,-0.00029464,-0.00067892,-0.00
 024544,-0.00035972,-0.00318068,0.00011399,0.00013194,0.00027219,0.0000
 1991,-0.00012456,-0.00006523,-0.14530304,0.10139345,0.00018752,0.00004
 827,0.00007979,-0.00001839,-0.00000523,-0.00001905,-0.00062980,-0.0006
 9889,0.00024327,-0.00074762,-0.00042964,-0.00200264,0.00142583,-0.0001
 5270,-0.00347021,-0.00007849,0.00021370,-0.00022933,-0.00017223,-0.000
 06202,-0.00016187,-0.00010158,-0.00009090,0.00008880,-0.00107388,0.000
 87148,0.00041478,0.00009595,0.00005114,0.00019424,0.00046808,-0.000363
 54,0.00030551,0.00032900,-0.00042186,0.00008582,-0.00080231,0.00035053
 ,-0.00008142,0.00008268,0.00004498,0.00005689,0.00010797,-0.00003679,-
 0.00000387,0.00007933,-0.00001149,0.00003494,0.00001622,0.00001665,-0.
 00003034,0.00003807,-0.00009520,-0.00001178,-0.00000174,0.00002158,-0.
 00002337,0.00001834,0.00004324,0.00000996,-0.00001061,0.00000381,-0.00
 007399,-0.00031464,0.00005743,-0.00020239,0.00066950,0.00108763,0.0003
 9984,-0.00001431,0.00000390,-0.00002352,0.00004249,0.00008617,-0.00010
 413,-0.00006689,-0.00007727,0.00017282,0.00000129,0.00003969,-0.000026
 72,0.00031039,0.00022196,0.00021607,0.00019714,-0.00088141,-0.00095394
 ,0.00033254,0.00004988,0.00009044,-0.14049121,0.06350193,-0.13792208,0
 .00018461,0.00024880,-0.00066997,0.00089099,0.00021184,-0.00012457,0.0
 0042054,0.00108941,0.00089171,-0.00079069,-0.00082773,0.00102705,-0.03
 379621,0.01408019,-0.03473200,-0.00166607,-0.00123427,0.00070144,0.000
 16645,-0.00099406,-0.00000060,-0.00052862,0.00122933,0.00167628,0.0017
 5257,-0.00258136,-0.00473493,0.00004083,0.00021405,0.00011269,0.000295
 53,0.00007723,0.00025579,0.17315221,-0.07486059,0.17847300,-0.00000369
 ,0.00000062,-0.00000009,0.00000047,-0.00000114,-0.00000017,-0.00001044
 ,0.00000950,-0.00000478,0.00000119,-0.00002334,0.00001163,-0.00007198,
 -0.00004427,-0.00001768,0.00000342,0.00000005,0.00000169,0.00000492,0.
 00000091,-0.00000120,-0.00000030,0.00000072,0.00000433,0.00000215,-0.0
 0000575,0.00000727,-0.00000228,0.00000355,-0.00000722,-0.00001102,0.00
 000786,-0.00000507,-0.00001312,0.00000353,-0.00000353,-0.00000427,0.00
 000106,0.00000176,-0.00000027,-0.00000395,-0.00000092,-0.00000063,-0.0
 0000175,0.00000124,-0.00000109,-0.00000026,-0.00000160,0.00000054,0.00
 000017,-0.00000310,0.00000267,-0.00000176,0.00000198,0.00000128,0.0000
 0111,0.00000092,0.00000136,-0.00000389,0.00000147,0.00000059,-0.000000
 59,0.00000087,-0.00000144,-0.00000171,-0.00000031,-0.00000198,-0.00002
 426,0.00000671,-0.00000019,0.00000028,0.00000049,-0.00000392,-0.000000
 89,-0.00000475,0.00000202,-0.00000266,0.00000008,0.00000140,0.00000208
 ,0.00000069,0.00000069,-0.00000225,-0.00000089,0.00000268,-0.00000579,
 -0.00000835,0.00000018,-0.00000094,0.00000050,0.00019996,0.00022459,-0
 .00027743,-0.40225548,-0.09581031,0.18658849,-0.00426924,0.00139724,-0
 .00288481,0.00048033,-0.00026241,-0.00009588,0.00137630,0.00051718,-0.
 00178400,-0.00024193,-0.00001506,0.00045066,0.01220787,-0.00089685,0.0
 0379311,0.00042352,0.00017612,-0.00032073,0.00004529,-0.00003473,0.000
 01255,0.00000704,-0.00002919,0.00001034,-0.00005279,-0.00006207,0.0001
 7479,0.00001235,0.00003404,-0.00006529,-0.00008001,-0.00002102,-0.0000
 0077,0.39224785,0.00000515,-0.00000060,0.00000273,-0.00000068,-0.00000
 006,-0.00000056,-0.00000205,-0.00000248,0.00000138,-0.00000399,-0.0000
 1224,-0.00000683,0.00005922,0.00000383,0.00001477,-0.00000212,-0.00000
 099,0.00000364,-0.00000226,0.00000169,-0.00000468,-0.00000182,-0.00000
 404,0.00000346,-0.00000743,0.00001320,0.00000058,-0.00000623,-0.000004
 91,-0.00000017,-0.00001795,0.00001381,-0.00000154,-0.00000156,-0.00000
 666,-0.00000187,-0.00000292,0.00000333,-0.00000198,0.00000122,-0.00000
 011,0.00000047,0.00000079,-0.00000108,-0.00000042,0.00000186,-0.000000
 48,0.00000039,0.00000050,0.00000048,-0.00000135,0.00000191,-0.00000222
 ,0.00000037,-0.00000234,0.00000019,-0.00000020,-0.00002296,0.00000919,
 0.00000031,0.00000126,-0.00000148,0.00000031,0.00000319,0.00000179,0.0
 0000085,-0.00000596,-0.00003587,0.00000342,-0.00000023,-0.00000011,-0.
 00000017,-0.00000452,0.00000434,-0.00000653,0.00000139,-0.00000209,0.0
 0000292,-0.00000114,0.00000019,-0.00000091,0.00000078,0.00000139,0.000
 00087,0.00000384,-0.00000255,-0.00000427,0.00000101,-0.00000041,0.0000
 0145,0.00022538,-0.00015207,-0.00011534,-0.07987404,-0.04145772,0.0512
 9387,0.00007939,-0.00341342,-0.00572061,-0.00096416,-0.00074433,0.0011
 7384,0.00236690,0.00595452,0.00309818,0.00072004,-0.00010010,-0.000882
 49,-0.01687305,-0.00351666,0.01546035,-0.00033512,0.00005394,-0.000345
 53,-0.00000790,0.00031291,-0.00001152,-0.00005573,0.00004519,0.0000029
 7,-0.00007001,0.00005237,-0.00002376,0.00001857,-0.00010320,-0.0000734
 8,-0.00010244,0.00004090,-0.00003984,0.09487621,0.04305261,-0.00001057
 ,-0.00000217,-0.00000805,0.00000072,0.00000013,0.00000218,0.00000319,0
 .00005237,-0.00001843,-0.00003397,-0.00003594,0.00005296,-0.00028855,-
 0.00008880,-0.00004528,0.00000889,-0.00001547,-0.00000763,0.00000632,0
 .00000166,0.00001517,0.00000760,0.00001247,-0.00001478,0.00002344,-0.0
 0004978,0.00001476,0.00000879,0.00000612,-0.00000959,0.00000564,-0.000
 01193,-0.00000485,-0.00000751,0.00001846,-0.00000006,-0.00000658,-0.00
 002018,0.00000585,-0.00000877,-0.00000246,-0.00000286,-0.00000061,0.00
 000276,0.00000035,-0.00000742,0.00000095,-0.00000206,0.00000065,-0.000
 00074,0.00000290,-0.00000598,0.00000696,-0.00000091,0.00000357,-0.0000
 0187,-0.00000066,0.00002307,-0.00002054,-0.00000097,-0.00000185,0.0000
 0204,-0.00000090,-0.00000621,-0.00000594,0.00000154,0.00000765,0.00001
 543,-0.00000881,0.00000087,-0.00000027,-0.00000116,0.00001057,-0.00000
 306,0.00002834,0.00000391,0.00000556,-0.00000960,-0.00000082,-0.000003
 43,-0.00000146,0.00000437,-0.00000577,-0.00000732,-0.00000413,0.000008
 11,0.00001477,-0.00000400,0.00000178,-0.00000330,-0.00034515,-0.000575
 65,0.00047406,0.14374921,0.04899758,-0.12090430,-0.00018111,-0.0055122
 9,0.00832952,0.00048899,0.00002758,-0.00095961,-0.00377155,0.00321318,
 -0.00210864,0.00086982,0.00012040,-0.00107254,0.04485857,0.01742953,-0
 .03251202,-0.00016966,-0.00034618,0.00027837,-0.00002555,0.00023111,0.
 00001539,0.00001607,0.00001275,0.00000168,0.00015280,0.00004054,-0.000
 18309,-0.00005120,-0.00001773,0.00001423,0.00025947,0.00033583,0.00007
 160,-0.18558300,-0.06382310,0.14856521\\0.00000300,0.00000115,0.000002
 52,0.00000085,-0.00000178,0.00000154,0.00001950,0.00001004,0.00000719,
 -0.00002809,-0.00001241,0.00000033,0.00000114,0.00001136,-0.00000319,-
 0.00000271,-0.00000224,0.00000688,-0.00000901,-0.00000697,-0.00000806,
 -0.00000502,0.00000415,0.00000479,0.00000739,-0.00001413,0.00001370,-0
 .00000218,0.00000337,-0.00000861,-0.00000526,-0.00000863,-0.00000771,-
 0.00000516,-0.00000383,-0.00000799,-0.00000180,-0.00000840,-0.00000083
 ,0.00000451,-0.00000012,0.00000313,0.00000179,-0.00000022,0.00000057,-
 0.00000255,-0.00000138,-0.00000015,0.00000250,-0.00000083,0.00000219,-
 0.00000240,-0.00000074,-0.00000044,0.00000136,-0.00000202,-0.00000133,
 0.00000196,0.00000050,0.00000208,0.00000039,0.00000120,0.00000088,-0.0
 0000189,0.00000142,0.00000079,0.00000505,0.00000417,-0.00000121,-0.000
 00335,-0.00000267,0.00000057,0.00000392,0.00000250,-0.00000182,0.00000
 070,0.00000040,-0.00000145,-0.00000106,0.00001038,0.00000250,0.0000003
 6,-0.00000064,0.00000011,0.00000399,0.00000187,-0.00000133,0.00000363,
 -0.00000741,0.00000756,0.00001786,-0.00000549,-0.00002118,-0.00000766,
 0.00001361,-0.00000496,-0.00000456,0.00001405,-0.00000004,0.00000102,-
 0.00000396,0.00000866,0.00001276,0.00003933,-0.00001779,-0.00000855,-0
 .00000197,0.00002311,0.00000157,-0.00003743,0.00000406,-0.00001259,0.0
 0000884,-0.00001065,0.00000727,0.00000913,0.00000180,0.00000389,-0.000
 00562,-0.00000462,-0.00000366,0.00000360,-0.00000060,0.00000607,-0.000
 00680,-0.00000139,-0.00000128,-0.00000356,0.00000864,-0.00000366,-0.00
 000186,0.00000177\\\@


 Boundary, n.  In political geography, an imaginary
 line between two nations, separating the imaginary
 rights of one from the imaginary rights of another.
                               -- Ambrose Bierce
 Job cpu time:       0 days 15 hours 33 minutes 37.3 seconds.
 Elapsed time:       0 days  1 hours 57 minutes 10.9 seconds.
 File lengths (MBytes):  RWF=   1991 Int=      0 D2E=      0 Chk=     40 Scr=      1
 Normal termination of Gaussian 16 at Fri Dec 25 09:17:01 2020.
